ITEM: TIMESTEP
15000
ITEM: NUMBER OF CELLS
2500
ITEM: BOX BOUNDS oo rr pp
0 1.5
0 0.5
-0.5 0.5
ITEM: CELLS id f_1[1] f_1[6] f_5[1] f_5[2] c_3[1] c_3[2] 
1 4.923e+20 0 17.6411 0.119906 0.00119807 0.0599034 
2 9.462e+20 0 343.242 4.48401 0.00156438 0.0782188 
3 1.6514e+21 0 317.275 7.23389 0.000874744 0.0437372 
4 1.9737e+21 0 253.375 6.90442 0.000682611 0.0341306 
5 1.698e+21 0 164.189 3.84915 0.000693596 0.0346798 
6 1.8539e+21 0 397.746 10.1806 0.000835756 0.0417878 
7 1.2645e+21 0 248.637 4.34079 0.00105924 0.052962 
8 1.8395e+21 0 214.229 5.44078 0.000695281 0.0347641 
9 2.4571e+21 0 241.412 8.18963 0.000540157 0.0270079 
10 2.4581e+21 0 290.933 9.8736 0.00057209 0.0286045 
11 1.3074e+21 0 274.619 4.95704 0.00105654 0.052827 
12 1.0749e+21 0 3307.59 49.0867 0.00277951 0.138976 
13 3.4203e+21 0 2200.84 103.929 0.000769885 0.0384943 
14 1.00629e+22 0 1492.14 207.308 0.000231977 0.0115989 
15 0 0 0 0 1e+20 5e+21 
16 0 0 0 0 1e+20 5e+21 
17 0 0 0 0 1e+20 5e+21 
18 0 0 0 0 1e+20 5e+21 
19 0 0 0 0 1e+20 5e+21 
20 0 0 0 0 1e+20 5e+21 
21 0 0 0 0 1e+20 5e+21 
22 0 0 0 0 1e+20 5e+21 
23 0 0 0 0 1e+20 5e+21 
24 0 0 0 0 1e+20 5e+21 
25 0 0 0 0 1e+20 5e+21 
26 0 0 0 0 1e+20 5e+21 
27 0 0 0 0 1e+20 5e+21 
28 0 0 0 0 1e+20 5e+21 
29 0 0 0 0 1e+20 5e+21 
30 0 0 0 0 1e+20 5e+21 
31 0 0 0 0 1e+20 5e+21 
32 0 0 0 0 1e+20 5e+21 
33 0 0 0 0 1e+20 5e+21 
34 0 0 0 0 1e+20 5e+21 
35 0 0 0 0 1e+20 5e+21 
36 0 0 0 0 1e+20 5e+21 
37 0 0 0 0 1e+20 5e+21 
38 0 0 0 0 1e+20 5e+21 
39 0 0 0 0 1e+20 5e+21 
40 0 0 0 0 1e+20 5e+21 
41 0 0 0 0 1e+20 5e+21 
42 0 0 0 0 1e+20 5e+21 
43 1.53e+19 0 9.72511e-13 2.05433e-16 2.99119e-06 0.000149559 
44 1.5579e+21 0 162.029 3.48511 0.000752874 0.0376437 
45 2.0448e+21 0 477.204 13.4722 0.000801744 0.0400872 
46 8.142e+20 0 181.693 2.04246 0.00149263 0.0746315 
47 7.893e+20 0 204.038 2.22349 0.00159609 0.0798043 
48 1.7239e+21 0 198.008 4.71278 0.000724015 0.0362007 
49 1.4452e+21 0 174.751 3.48684 0.000830827 0.0415413 
50 1.6492e+21 0 491.572 11.1929 0.00100324 0.0501622 
51 1.8221e+21 0 202.814 5.10215 0.000690106 0.0345053 
52 1.7114e+21 0 281.903 6.66093 0.000813706 0.0406853 
53 1.3978e+21 0 251.993 4.86313 0.000962218 0.0481109 
54 6.596e+20 0 257.962 2.3492 0.00205395 0.102697 
55 1.0558e+21 0 200.015 2.91559 0.00118587 0.0592933 
56 1.5227e+21 0 225.144 4.73324 0.000852976 0.0426488 
57 1.5473e+21 0 234.822 5.01646 0.000850438 0.0425219 
58 1.6266e+21 0 247.321 5.55424 0.000822088 0.0411044 
59 1.8316e+21 0 384.45 9.72195 0.000837062 0.0418531 
60 1.6443e+21 0 248.28 5.63647 0.000814215 0.0407108 
61 1.3805e+21 0 329.032 6.2713 0.00105827 0.0529134 
62 2.1824e+21 0 1642.65 49.495 0.00110198 0.0550988 
63 3.0913e+21 0 2633.83 112.412 0.000900594 0.0450297 
64 1.44234e+22 0 1446.04 287.959 0.000160279 0.00801394 
65 0 0 0 0 1e+20 5e+21 
66 0 0 0 0 1e+20 5e+21 
67 0 0 0 0 1e+20 5e+21 
68 0 0 0 0 1e+20 5e+21 
69 0 0 0 0 1e+20 5e+21 
70 0 0 0 0 1e+20 5e+21 
71 0 0 0 0 1e+20 5e+21 
72 0 0 0 0 1e+20 5e+21 
73 0 0 0 0 1e+20 5e+21 
74 0 0 0 0 1e+20 5e+21 
75 0 0 0 0 1e+20 5e+21 
76 0 0 0 0 1e+20 5e+21 
77 0 0 0 0 1e+20 5e+21 
78 0 0 0 0 1e+20 5e+21 
79 0 0 0 0 1e+20 5e+21 
80 0 0 0 0 1e+20 5e+21 
81 0 0 0 0 1e+20 5e+21 
82 0 0 0 0 1e+20 5e+21 
83 0 0 0 0 1e+20 5e+21 
84 0 0 0 0 1e+20 5e+21 
85 0 0 0 0 1e+20 5e+21 
86 0 0 0 0 1e+20 5e+21 
87 0 0 0 0 1e+20 5e+21 
88 0 0 0 0 1e+20 5e+21 
89 0 0 0 0 1e+20 5e+21 
90 0 0 0 0 1e+20 5e+21 
91 0 0 0 0 1e+20 5e+21 
92 0 0 0 0 1e+20 5e+21 
93 8.7e+18 0 4.2757e-12 5.13581e-16 8.32494e-06 0.000416247 
94 1.057e+21 0 259.298 3.78405 0.00128378 0.064189 
95 6.988e+20 0 317.836 3.06647 0.00206832 0.103416 
96 1.736e+21 0 152.701 3.65996 0.00066333 0.0331665 
97 2.1907e+21 0 118.24 3.57628 0.000485582 0.0242791 
98 1.3832e+21 0 99.6096 1.90226 0.00072925 0.0364625 
99 1.6736e+21 0 134.233 3.10166 0.000661108 0.0330554 
100 2.2141e+21 0 224.74 6.87006 0.000586289 0.0293144 
101 2.0367e+21 0 275.13 7.73655 0.000678606 0.0339303 
102 1.44e+21 0 380.83 7.57141 0.00106158 0.0530789 
103 1.1445e+21 0 200.983 3.17583 0.0010956 0.0547799 
104 1.0082e+21 0 131.771 1.83422 0.00109115 0.0545576 
105 1.7049e+21 0 263.288 6.19746 0.000799692 0.0399846 
106 1.3868e+21 0 426.439 8.16496 0.00114164 0.0570821 
107 1.416e+21 0 344.488 6.73473 0.00104652 0.0523261 
108 1.7359e+21 0 261.586 6.26935 0.000783833 0.0391917 
109 1.5937e+21 0 334.789 7.36649 0.000921638 0.0460819 
110 6.509e+20 0 242.563 2.17983 0.00204206 0.102103 
111 2.1524e+21 0 295.352 8.777 0.000656403 0.0328201 
112 2.153e+21 0 509.854 15.1556 0.000777235 0.0388617 
113 4.1241e+21 0 2665.47 151.77 0.000677561 0.0338781 
114 1.21611e+22 0 1133.14 190.256 0.000176255 0.00881277 
115 0 0 0 0 1e+20 5e+21 
116 0 0 0 0 1e+20 5e+21 
117 0 0 0 0 1e+20 5e+21 
118 0 0 0 0 1e+20 5e+21 
119 0 0 0 0 1e+20 5e+21 
120 0 0 0 0 1e+20 5e+21 
121 0 0 0 0 1e+20 5e+21 
122 0 0 0 0 1e+20 5e+21 
123 0 0 0 0 1e+20 5e+21 
124 0 0 0 0 1e+20 5e+21 
125 0 0 0 0 1e+20 5e+21 
126 0 0 0 0 1e+20 5e+21 
127 0 0 0 0 1e+20 5e+21 
128 0 0 0 0 1e+20 5e+21 
129 0 0 0 0 1e+20 5e+21 
130 0 0 0 0 1e+20 5e+21 
131 0 0 0 0 1e+20 5e+21 
132 0 0 0 0 1e+20 5e+21 
133 0 0 0 0 1e+20 5e+21 
134 0 0 0 0 1e+20 5e+21 
135 0 0 0 0 1e+20 5e+21 
136 0 0 0 0 1e+20 5e+21 
137 0 0 0 0 1e+20 5e+21 
138 0 0 0 0 1e+20 5e+21 
139 0 0 0 0 1e+20 5e+21 
140 0 0 0 0 1e+20 5e+21 
141 0 0 0 0 1e+20 5e+21 
142 0 0 0 0 1e+20 5e+21 
143 1.768e+20 0 80.0595 0.195424 0.00533168 0.266584 
144 7.213e+20 0 155.556 1.54912 0.00160567 0.0802836 
145 1.098e+21 0 148.924 2.25761 0.00104065 0.0520325 
146 7.452e+20 0 42.0479 0.432614 0.00103604 0.0518019 
147 1.0808e+21 0 101.365 1.51258 0.000938357 0.0469179 
148 1.5155e+21 0 259.404 5.4277 0.000895498 0.0447749 
149 1.3779e+21 0 205.584 3.91102 0.000916425 0.0458213 
150 1.503e+21 0 181.444 3.76516 0.000808237 0.0404119 
151 7.62e+20 0 159.216 1.67504 0.00153091 0.0765454 
152 7.568e+20 0 160.632 1.6784 0.00154566 0.0772831 
153 2.643e+20 0 225.833 0.824075 0.00491886 0.245943 
154 6.478e+20 0 120.747 1.07994 0.00165283 0.0826417 
155 1.7018e+21 0 238.143 5.59537 0.000776603 0.0388302 
156 1.4576e+21 0 379.945 7.64615 0.001048 0.0524002 
157 1.6782e+21 0 286.894 6.64734 0.00083433 0.0417165 
158 1.2059e+21 0 206.388 3.43621 0.0010484 0.0524202 
159 8.107e+20 0 331.506 3.71052 0.00180626 0.090313 
160 1.1108e+21 0 357.607 5.48435 0.00134961 0.0674805 
161 1.664e+21 0 177.617 4.08056 0.000725228 0.0362614 
162 1.894e+21 0 895.162 23.408 0.00105196 0.0525978 
163 3.2974e+21 0 1867.33 85.011 0.000758918 0.0379459 
164 1.55034e+22 0 846.761 181.247 0.000126319 0.00631593 
165 0 0 0 0 1e+20 5e+21 
166 0 0 0 0 1e+20 5e+21 
167 0 0 0 0 1e+20 5e+21 
168 0 0 0 0 1e+20 5e+21 
169 0 0 0 0 1e+20 5e+21 
170 0 0 0 0 1e+20 5e+21 
171 0 0 0 0 1e+20 5e+21 
172 0 0 0 0 1e+20 5e+21 
173 0 0 0 0 1e+20 5e+21 
174 0 0 0 0 1e+20 5e+21 
175 0 0 0 0 1e+20 5e+21 
176 0 0 0 0 1e+20 5e+21 
177 0 0 0 0 1e+20 5e+21 
178 0 0 0 0 1e+20 5e+21 
179 0 0 0 0 1e+20 5e+21 
180 0 0 0 0 1e+20 5e+21 
181 0 0 0 0 1e+20 5e+21 
182 0 0 0 0 1e+20 5e+21 
183 0 0 0 0 1e+20 5e+21 
184 0 0 0 0 1e+20 5e+21 
185 0 0 0 0 1e+20 5e+21 
186 0 0 0 0 1e+20 5e+21 
187 0 0 0 0 1e+20 5e+21 
188 0 0 0 0 1e+20 5e+21 
189 0 0 0 0 1e+20 5e+21 
190 0 0 0 0 1e+20 5e+21 
191 0 0 0 0 1e+20 5e+21 
192 0 0 0 0 1e+20 5e+21 
193 0 0 0 0 1e+20 5e+21 
194 4.2e+20 0 51.676 0.299655 0.00195956 0.097978 
195 1.9053e+21 0 217.362 5.71782 0.000674298 0.0337149 
196 1.4332e+21 0 232.648 4.60351 0.000915499 0.045775 
197 1.0131e+21 0 290.064 4.05723 0.00138678 0.0693392 
198 7.322e+20 0 103.697 1.04828 0.00139491 0.0697454 
199 1.0835e+21 0 108.582 1.62431 0.000956189 0.0478095 
200 1.0398e+21 0 263.591 3.78411 0.00131168 0.0655838 
201 2.1891e+21 0 231.853 7.00748 0.00059874 0.029937 
202 1.3527e+21 0 383.434 7.16103 0.00113248 0.056624 
203 1.6196e+21 0 285.405 6.38194 0.000863125 0.0431562 
204 2.7438e+21 0 269.951 10.2263 0.000500765 0.0250382 
205 1.2616e+21 0 300.483 5.23389 0.00112588 0.0562938 
206 1.1271e+21 0 395.429 6.15339 0.0013722 0.0686099 
207 1.8286e+21 0 237.863 6.00521 0.000722488 0.0361244 
208 1.8981e+21 0 209.607 5.49297 0.000669275 0.0334637 
209 1.449e+21 0 219.116 4.38354 0.00088885 0.0444425 
210 2.1512e+21 0 287.422 8.53658 0.000651251 0.0325625 
211 2.6011e+21 0 401.149 14.4061 0.000597249 0.0298625 
212 1.578e+21 0 395.475 8.61607 0.00098014 0.049007 
213 1.9407e+21 0 2064.42 55.3145 0.0013302 0.06651 
214 7.1961e+21 0 2311.46 229.65 0.000371531 0.0185766 
215 0 0 0 0 1e+20 5e+21 
216 0 0 0 0 1e+20 5e+21 
217 0 0 0 0 1e+20 5e+21 
218 0 0 0 0 1e+20 5e+21 
219 0 0 0 0 1e+20 5e+21 
220 0 0 0 0 1e+20 5e+21 
221 0 0 0 0 1e+20 5e+21 
222 0 0 0 0 1e+20 5e+21 
223 0 0 0 0 1e+20 5e+21 
224 0 0 0 0 1e+20 5e+21 
225 0 0 0 0 1e+20 5e+21 
226 0 0 0 0 1e+20 5e+21 
227 0 0 0 0 1e+20 5e+21 
228 0 0 0 0 1e+20 5e+21 
229 0 0 0 0 1e+20 5e+21 
230 0 0 0 0 1e+20 5e+21 
231 0 0 0 0 1e+20 5e+21 
232 0 0 0 0 1e+20 5e+21 
233 0 0 0 0 1e+20 5e+21 
234 0 0 0 0 1e+20 5e+21 
235 0 0 0 0 1e+20 5e+21 
236 0 0 0 0 1e+20 5e+21 
237 0 0 0 0 1e+20 5e+21 
238 0 0 0 0 1e+20 5e+21 
239 0 0 0 0 1e+20 5e+21 
240 0 0 0 0 1e+20 5e+21 
241 0 0 0 0 1e+20 5e+21 
242 0 0 0 0 1e+20 5e+21 
243 0 0 0 0 1e+20 5e+21 
244 1.594e+20 0 164.226 0.36142 0.00738901 0.369451 
245 1.0918e+21 0 238.015 3.58782 0.0012103 0.0605149 
246 1.0813e+21 0 205.642 3.07002 0.0011679 0.0583951 
247 1.4537e+21 0 152.74 3.06556 0.000792206 0.0396103 
248 1.6013e+21 0 176.593 3.90417 0.000752275 0.0376138 
249 1.4816e+21 0 159.759 3.26797 0.00078819 0.0394095 
250 3.739e+20 0 245.621 1.26796 0.00356874 0.178437 
251 2.2644e+21 0 208.281 6.51158 0.000559908 0.0279954 
252 2.5696e+21 0 408.609 14.4963 0.000608034 0.0304017 
253 2.003e+21 0 230.489 6.37403 0.000653174 0.0326587 
254 1.5228e+21 0 215.045 4.52122 0.000840871 0.0420436 
255 1.2939e+21 0 192.494 3.43876 0.000956218 0.0478109 
256 1.0004e+21 0 205.975 2.84493 0.00126298 0.063149 
257 1.3293e+21 0 236.926 4.34829 0.000992647 0.0496324 
258 1.1227e+21 0 188.763 2.92593 0.00109536 0.0547682 
259 8.461e+20 0 449.908 5.25568 0.00190254 0.0951272 
260 1.5285e+21 0 328.018 6.92224 0.000954885 0.0477442 
261 1.2934e+21 0 411.709 7.35202 0.00121082 0.0605408 
262 1.6385e+21 0 254.165 5.74971 0.000823053 0.0411526 
263 2.2571e+21 0 2346.38 73.1192 0.00119004 0.0595019 
264 1.20036e+22 0 1252.53 207.579 0.000184201 0.00921003 
265 0 0 0 0 1e+20 5e+21 
266 0 0 0 0 1e+20 5e+21 
267 0 0 0 0 1e+20 5e+21 
268 0 0 0 0 1e+20 5e+21 
269 0 0 0 0 1e+20 5e+21 
270 0 0 0 0 1e+20 5e+21 
271 0 0 0 0 1e+20 5e+21 
272 0 0 0 0 1e+20 5e+21 
273 0 0 0 0 1e+20 5e+21 
274 0 0 0 0 1e+20 5e+21 
275 0 0 0 0 1e+20 5e+21 
276 0 0 0 0 1e+20 5e+21 
277 0 0 0 0 1e+20 5e+21 
278 0 0 0 0 1e+20 5e+21 
279 0 0 0 0 1e+20 5e+21 
280 0 0 0 0 1e+20 5e+21 
281 0 0 0 0 1e+20 5e+21 
282 0 0 0 0 1e+20 5e+21 
283 0 0 0 0 1e+20 5e+21 
284 0 0 0 0 1e+20 5e+21 
285 0 0 0 0 1e+20 5e+21 
286 0 0 0 0 1e+20 5e+21 
287 0 0 0 0 1e+20 5e+21 
288 0 0 0 0 1e+20 5e+21 
289 0 0 0 0 1e+20 5e+21 
290 0 0 0 0 1e+20 5e+21 
291 0 0 0 0 1e+20 5e+21 
292 0 0 0 0 1e+20 5e+21 
293 0 0 0 0 1e+20 5e+21 
294 2.22e+20 0 102.701 0.314783 0.00458694 0.229347 
295 1.4208e+21 0 142.859 2.80237 0.00079392 0.039696 
296 1.9895e+21 0 190.326 5.22787 0.00061971 0.0309855 
297 2.1585e+21 0 176.708 5.26612 0.000558194 0.0279097 
298 1.6135e+21 0 341.766 7.61344 0.000916168 0.0458084 
299 2.3283e+21 0 217.557 6.9935 0.000551946 0.0275973 
300 1.7269e+21 0 105.164 2.50737 0.000594018 0.0297009 
301 1.6545e+21 0 287.863 6.57561 0.000847167 0.0423583 
302 1.9683e+21 0 157.565 4.28188 0.000590757 0.0295379 
303 5.635e+20 0 504.824 3.92751 0.00296052 0.148026 
304 5.841e+20 0 498.705 4.02174 0.00284533 0.142266 
305 6.647e+20 0 335.909 3.0827 0.00221203 0.110602 
306 1.635e+21 0 266.742 6.02134 0.000837257 0.0418629 
307 1.9729e+21 0 166.359 4.53143 0.000599387 0.0299694 
308 1.6217e+21 0 198.496 4.44433 0.000770231 0.0385115 
309 9.39e+20 0 313.249 4.06105 0.00153232 0.0766158 
310 1.449e+21 0 497.478 9.95235 0.00114609 0.0573046 
311 1.8984e+21 0 255.737 6.70292 0.000711731 0.0355866 
312 1.9056e+21 0 167.953 4.4188 0.000622393 0.0311197 
313 2.6282e+21 0 2727.88 98.9845 0.00107087 0.0535433 
314 1.11753e+22 0 1438.83 221.999 0.000206543 0.0103272 
315 0 0 0 0 1e+20 5e+21 
316 0 0 0 0 1e+20 5e+21 
317 0 0 0 0 1e+20 5e+21 
318 0 0 0 0 1e+20 5e+21 
319 0 0 0 0 1e+20 5e+21 
320 0 0 0 0 1e+20 5e+21 
321 0 0 0 0 1e+20 5e+21 
322 0 0 0 0 1e+20 5e+21 
323 0 0 0 0 1e+20 5e+21 
324 0 0 0 0 1e+20 5e+21 
325 0 0 0 0 1e+20 5e+21 
326 0 0 0 0 1e+20 5e+21 
327 0 0 0 0 1e+20 5e+21 
328 0 0 0 0 1e+20 5e+21 
329 0 0 0 0 1e+20 5e+21 
330 0 0 0 0 1e+20 5e+21 
331 0 0 0 0 1e+20 5e+21 
332 0 0 0 0 1e+20 5e+21 
333 0 0 0 0 1e+20 5e+21 
334 0 0 0 0 1e+20 5e+21 
335 0 0 0 0 1e+20 5e+21 
336 0 0 0 0 1e+20 5e+21 
337 0 0 0 0 1e+20 5e+21 
338 0 0 0 0 1e+20 5e+21 
339 0 0 0 0 1e+20 5e+21 
340 0 0 0 0 1e+20 5e+21 
341 0 0 0 0 1e+20 5e+21 
342 0 0 0 0 1e+20 5e+21 
343 6.9e+18 0 1.61733e-11 1.54074e-15 1.5855e-05 0.00079275 
344 1.0871e+21 0 219.442 3.29361 0.0011853 0.0592649 
345 2.316e+21 0 152.939 4.89036 0.000497451 0.0248725 
346 1.0734e+21 0 61.3229 0.908798 0.000808518 0.0404259 
347 1.0009e+21 0 70.0676 0.968259 0.000903666 0.0451833 
348 1.7964e+21 0 130.76 3.2431 0.000610931 0.0305465 
349 1.332e+21 0 402.508 7.40223 0.00116752 0.058376 
350 2.4572e+21 0 292.219 9.91362 0.000573082 0.0286541 
351 1.154e+21 0 339.575 5.41035 0.00127842 0.0639208 
352 1.8227e+21 0 160.209 4.03166 0.000641247 0.0320624 
353 1.4567e+21 0 224.788 4.52091 0.000891184 0.0445592 
354 7.658e+20 0 496.547 5.25 0.00216731 0.108365 
355 1.4295e+21 0 274.101 5.40976 0.000965731 0.0482866 
356 1.4855e+21 0 333.573 6.84143 0.000987653 0.0493827 
357 1.235e+21 0 322.318 5.49585 0.00117541 0.0587705 
358 7.026e+20 0 71.0976 0.689678 0.00129317 0.0646584 
359 1.8035e+21 0 257.086 6.40144 0.000750406 0.0375203 
360 2.1655e+21 0 166.438 4.97616 0.000546158 0.0273079 
361 1.2394e+21 0 289.803 4.95905 0.00113326 0.0566629 
362 6.802e+20 0 2440.55 22.9196 0.00399735 0.199868 
363 3.3004e+21 0 2067.3 94.2007 0.000782523 0.0391261 
364 1.07769e+22 0 1523.42 226.672 0.000218006 0.0109003 
365 0 0 0 0 1e+20 5e+21 
366 0 0 0 0 1e+20 5e+21 
367 0 0 0 0 1e+20 5e+21 
368 0 0 0 0 1e+20 5e+21 
369 0 0 0 0 1e+20 5e+21 
370 0 0 0 0 1e+20 5e+21 
371 0 0 0 0 1e+20 5e+21 
372 0 0 0 0 1e+20 5e+21 
373 0 0 0 0 1e+20 5e+21 
374 0 0 0 0 1e+20 5e+21 
375 0 0 0 0 1e+20 5e+21 
376 0 0 0 0 1e+20 5e+21 
377 0 0 0 0 1e+20 5e+21 
378 0 0 0 0 1e+20 5e+21 
379 0 0 0 0 1e+20 5e+21 
380 0 0 0 0 1e+20 5e+21 
381 0 0 0 0 1e+20 5e+21 
382 0 0 0 0 1e+20 5e+21 
383 0 0 0 0 1e+20 5e+21 
384 0 0 0 0 1e+20 5e+21 
385 0 0 0 0 1e+20 5e+21 
386 0 0 0 0 1e+20 5e+21 
387 0 0 0 0 1e+20 5e+21 
388 0 0 0 0 1e+20 5e+21 
389 0 0 0 0 1e+20 5e+21 
390 0 0 0 0 1e+20 5e+21 
391 0 0 0 0 1e+20 5e+21 
392 1.687e+20 0 8.64365e-11 2.01324e-13 1.09031e-06 5.45154e-05 
393 1.213e+20 0 530.061 0.887707 0.0139627 0.698133 
394 3.88e+20 0 177.148 0.94897 0.00310771 0.155386 
395 1.6056e+21 0 218.397 4.84135 0.00080134 0.040067 
396 1.4831e+21 0 113.24 2.31875 0.000707714 0.0353857 
397 2.0811e+21 0 136.3 3.91627 0.000534182 0.0267091 
398 1.3298e+21 0 249.941 4.58888 0.00100886 0.050443 
399 1.524e+21 0 266.959 5.61711 0.000898465 0.0449232 
400 1.0936e+21 0 379.657 5.73236 0.0013965 0.069825 
401 1.1166e+21 0 150.798 2.32475 0.00102729 0.0513645 
402 1.2992e+21 0 230.747 4.139 0.00100736 0.050368 
403 1.3359e+21 0 354.587 6.54003 0.00111925 0.0559626 
404 1.7518e+21 0 230.642 5.57836 0.00074699 0.0373495 
405 2.7126e+21 0 265.764 9.95325 0.000504076 0.0252038 
406 8.08e+20 0 148.146 1.65266 0.00141186 0.0705928 
407 5.762e+20 0 144.405 1.14879 0.0019642 0.09821 
408 1.8038e+21 0 94.9028 2.36347 0.000550879 0.0275439 
409 2.2619e+21 0 260.769 8.14354 0.000600972 0.0300486 
410 1.7318e+21 0 183.17 4.37961 0.000703518 0.0351759 
411 1.0456e+21 0 264.714 3.82143 0.00130612 0.0653061 
412 1.3979e+21 0 492.803 9.51114 0.00118452 0.0592258 
413 2.73e+21 0 2259.56 85.1665 0.000972462 0.0486231 
414 1.22304e+22 0 1960.08 330.976 0.000207707 0.0103854 
415 0 0 0 0 1e+20 5e+21 
416 0 0 0 0 1e+20 5e+21 
417 0 0 0 0 1e+20 5e+21 
418 0 0 0 0 1e+20 5e+21 
419 0 0 0 0 1e+20 5e+21 
420 0 0 0 0 1e+20 5e+21 
421 0 0 0 0 1e+20 5e+21 
422 0 0 0 0 1e+20 5e+21 
423 0 0 0 0 1e+20 5e+21 
424 0 0 0 0 1e+20 5e+21 
425 0 0 0 0 1e+20 5e+21 
426 0 0 0 0 1e+20 5e+21 
427 0 0 0 0 1e+20 5e+21 
428 0 0 0 0 1e+20 5e+21 
429 0 0 0 0 1e+20 5e+21 
430 0 0 0 0 1e+20 5e+21 
431 0 0 0 0 1e+20 5e+21 
432 0 0 0 0 1e+20 5e+21 
433 0 0 0 0 1e+20 5e+21 
434 0 0 0 0 1e+20 5e+21 
435 0 0 0 0 1e+20 5e+21 
436 0 0 0 0 1e+20 5e+21 
437 0 0 0 0 1e+20 5e+21 
438 0 0 0 0 1e+20 5e+21 
439 0 0 0 0 1e+20 5e+21 
440 0 0 0 0 1e+20 5e+21 
441 0 0 0 0 1e+20 5e+21 
442 2.903e+20 0 1.06611e-11 4.273e-14 3.31177e-07 1.65588e-05 
443 0 0 0 0 1e+20 5e+21 
444 9.944e+20 0 292.81 4.02004 0.001417 0.0708498 
445 1.6989e+21 0 161.729 3.79348 0.000689992 0.0344996 
446 1.0083e+21 0 159.682 2.22295 0.001158 0.0578999 
447 1.7366e+21 0 108.034 2.59026 0.000595651 0.0297825 
448 1.2683e+21 0 191.74 3.35752 0.000974333 0.0487166 
449 1.4545e+21 0 206.857 4.154 0.000869825 0.0434913 
450 1.3608e+21 0 161.622 3.03653 0.000861249 0.0430625 
451 1.9456e+21 0 255.861 6.87291 0.000694569 0.0347285 
452 1.1529e+21 0 186.77 2.97291 0.00106317 0.0531584 
453 1.3633e+21 0 144.944 2.72819 0.000831129 0.0415565 
454 5.42e+20 0 390.26 2.92036 0.0028419 0.142095 
455 1.946e+21 0 329.628 8.85625 0.00075116 0.037558 
456 1.883e+21 0 390.586 10.1543 0.00081822 0.040911 
457 1.0315e+21 0 215.486 3.06881 0.00124216 0.0621081 
458 9.24e+20 0 225.848 2.88118 0.00140702 0.0703508 
459 1.1352e+21 0 304.302 4.76936 0.00125615 0.0628073 
460 1.0649e+21 0 194.398 2.85814 0.0011654 0.0582698 
461 2.0245e+21 0 297.98 8.3289 0.00069979 0.0349895 
462 1.4469e+21 0 240.732 4.809 0.000916484 0.0458242 
463 3.3526e+21 0 2103.17 97.3509 0.000774457 0.0387229 
464 1.21641e+22 0 1440.24 241.879 0.000189812 0.00949059 
465 0 0 0 0 1e+20 5e+21 
466 0 0 0 0 1e+20 5e+21 
467 0 0 0 0 1e+20 5e+21 
468 0 0 0 0 1e+20 5e+21 
469 0 0 0 0 1e+20 5e+21 
470 0 0 0 0 1e+20 5e+21 
471 0 0 0 0 1e+20 5e+21 
472 0 0 0 0 1e+20 5e+21 
473 0 0 0 0 1e+20 5e+21 
474 0 0 0 0 1e+20 5e+21 
475 0 0 0 0 1e+20 5e+21 
476 0 0 0 0 1e+20 5e+21 
477 0 0 0 0 1e+20 5e+21 
478 0 0 0 0 1e+20 5e+21 
479 0 0 0 0 1e+20 5e+21 
480 0 0 0 0 1e+20 5e+21 
481 0 0 0 0 1e+20 5e+21 
482 0 0 0 0 1e+20 5e+21 
483 0 0 0 0 1e+20 5e+21 
484 0 0 0 0 1e+20 5e+21 
485 0 0 0 0 1e+20 5e+21 
486 0 0 0 0 1e+20 5e+21 
487 0 0 0 0 1e+20 5e+21 
488 0 0 0 0 1e+20 5e+21 
489 0 0 0 0 1e+20 5e+21 
490 0 0 0 0 1e+20 5e+21 
491 0 0 0 0 1e+20 5e+21 
492 2.091e+20 0 5.30758 0.0153226 0.0019438 0.0971901 
493 5.44e+19 0 1.69582e-11 1.27368e-14 2.04078e-06 0.000102039 
494 3.336e+20 0 197.848 0.911255 0.00374046 0.187023 
495 2.2096e+21 0 464.677 14.1758 0.000735853 0.0367927 
496 1.3579e+21 0 177.238 3.32283 0.000888123 0.0444061 
497 1.5974e+21 0 230.125 5.07528 0.000818621 0.040931 
498 2.4513e+21 0 286.086 9.68225 0.000570697 0.0285348 
499 1.396e+21 0 235.103 4.53135 0.000942959 0.047148 
500 2.4757e+21 0 201.049 6.87198 0.000506539 0.025327 
501 4.204e+20 0 290.52 1.68625 0.00334356 0.167178 
502 5.595e+20 0 196.77 1.51999 0.00222646 0.111323 
503 1.1765e+21 0 298.028 4.84096 0.00120425 0.0602124 
504 2.4291e+21 0 287.267 9.63417 0.000576648 0.0288324 
505 1.6459e+21 0 229.39 5.21267 0.000793711 0.0396856 
506 1.9625e+21 0 198.928 5.39 0.000636904 0.0318452 
507 1.1849e+21 0 274.044 4.48317 0.00116501 0.0582506 
508 1.2762e+21 0 237.455 4.18392 0.00103466 0.0517332 
509 1.124e+21 0 119.376 1.85253 0.000949218 0.0474609 
510 1.4278e+21 0 275.805 5.43691 0.00096874 0.048437 
511 2.9654e+21 0 276.792 11.3324 0.000466952 0.0233476 
512 2.8845e+21 0 271.051 10.7945 0.000476939 0.023847 
513 1.8825e+21 0 1873.68 48.6984 0.00133073 0.0665364 
514 1.9052e+21 0 1945.42 51.1726 0.00133028 0.0665138 
515 2.1424e+21 0 656.486 19.4182 0.000844748 0.0422374 
516 6.857e+20 0 774.957 7.3366 0.00277862 0.138931 
517 1.618e+21 0 1367.93 30.558 0.00140439 0.0702197 
518 1.3739e+21 0 1088.26 20.643 0.00154071 0.0770354 
519 1.285e+21 0 817.207 14.4983 0.00150733 0.0753664 
520 1.2551e+21 0 1806.92 31.3113 0.00197361 0.0986804 
521 9.224e+20 0 1133.95 14.441 0.0023243 0.116215 
522 7.228e+20 0 288.274 2.87678 0.00194004 0.0970018 
523 1.5122e+21 0 819.664 17.1131 0.00128205 0.0641027 
524 1.133e+21 0 623.345 9.75083 0.0015719 0.0785948 
525 1.917e+20 0 110.873 0.293448 0.00543954 0.271977 
526 1.1937e+21 0 942.027 15.5254 0.00169571 0.0847857 
527 2.0251e+21 0 791.979 22.1434 0.000947203 0.0473601 
528 2.8715e+21 0 779.033 30.885 0.000664602 0.0332301 
529 1.6946e+21 0 827.94 19.3709 0.00114763 0.0573813 
530 2.412e+20 0 467.677 1.55742 0.00675451 0.337726 
531 1.1823e+21 0 1182.07 19.2954 0.00183688 0.0918438 
532 0 0 0 0 1e+20 5e+21 
533 1.2441e+21 0 907.398 15.5861 0.00160824 0.0804118 
534 2.2575e+21 0 1022.21 31.8605 0.00091964 0.045982 
535 3.994e+20 0 89.198 0.491865 0.00244056 0.122028 
536 1.776e+20 0 247.443 0.606739 0.00753048 0.376524 
537 2.5697e+21 0 1101.5 39.0795 0.000826838 0.0413419 
538 7.113e+20 0 630.903 6.19582 0.00251318 0.125659 
539 2.2894e+21 0 1142.26 36.1052 0.000938584 0.0469292 
540 8.086e+20 0 1098.69 12.2656 0.00262558 0.131279 
541 1.253e+20 0 180.749 0.312687 0.00968346 0.484173 
542 1.3215e+21 0 360.639 6.57995 0.0011374 0.05687 
543 6.538e+20 0 277.126 2.50153 0.00211872 0.105936 
544 7.305e+20 0 220.803 2.22694 0.0017673 0.0883648 
545 9.565e+20 0 219.09 2.89328 0.00134647 0.0673234 
546 1.5063e+21 0 211.157 4.39136 0.000845286 0.0422643 
547 8.406e+20 0 154.542 1.79357 0.001375 0.0687501 
548 1.5512e+21 0 405.499 8.68443 0.00100484 0.050242 
549 1.7879e+21 0 490.072 12.0972 0.000924539 0.046227 
550 4.265e+20 0 48.4456 0.28527 0.00189146 0.0945731 
551 1.8616e+21 0 251.668 6.46841 0.000722201 0.0361101 
552 3.0451e+21 0 285.1 11.9862 0.000458919 0.0229459 
553 1.333e+21 0 177.157 3.2604 0.000904584 0.0452292 
554 2.2173e+21 0 241.55 7.39459 0.000598681 0.0299341 
555 1.2544e+21 0 153.137 2.65215 0.000918812 0.0459406 
556 1.7676e+21 0 292.507 7.13845 0.000796905 0.0398452 
557 1.402e+21 0 269.332 5.21339 0.000979331 0.0489665 
558 1.5493e+21 0 158.3 3.3861 0.000751608 0.0375804 
559 8.62e+20 0 194.87 2.31918 0.00144079 0.0720396 
560 4.947e+20 0 196.762 1.3439 0.00251807 0.125904 
561 9.391e+20 0 118.168 1.53212 0.00113253 0.0566266 
562 2.3137e+21 0 304.082 9.7136 0.00061618 0.030809 
563 2.7687e+21 0 585.817 22.3934 0.000630984 0.0315492 
564 1.4293e+21 0 1315.38 25.9572 0.00157062 0.0785309 
565 2.3628e+21 0 923.412 30.1235 0.0008514 0.04257 
566 1.5057e+21 0 730.09 15.1774 0.00124221 0.0621107 
567 1.2116e+21 0 562.467 9.40891 0.00142383 0.0711916 
568 7.772e+20 0 225.913 2.42414 0.00167293 0.0836464 
569 1.0483e+21 0 511.512 7.40328 0.00159789 0.0798946 
570 1.4922e+21 0 508.929 10.485 0.00112079 0.0560396 
571 1.4488e+21 0 990.013 19.8031 0.00141882 0.0709412 
572 1.5613e+21 0 398.352 8.58691 0.000992852 0.0496426 
573 1.0942e+21 0 558.99 8.44469 0.00157357 0.0786786 
574 8.372e+20 0 403.96 4.66929 0.00185962 0.0929809 
575 1.2276e+21 0 703.921 11.9306 0.00150648 0.075324 
576 4.846e+20 0 360.426 2.41148 0.00310111 0.155056 
577 7.086e+20 0 782.864 7.65897 0.0026973 0.134865 
578 7.639e+20 0 1278.38 13.4827 0.00291283 0.145642 
579 1.6749e+21 0 975.743 22.5636 0.00122178 0.061089 
580 8.938e+20 0 917.989 11.3282 0.00224661 0.11233 
581 6.095e+20 0 706.463 5.94493 0.00303761 0.151881 
582 7.331e+20 0 287.27 2.90761 0.00191071 0.0955355 
583 9.934e+20 0 183.178 2.51235 0.00122646 0.0613231 
584 1.4713e+21 0 836.693 16.9962 0.00132612 0.0663059 
585 1.7576e+21 0 710.907 17.2511 0.00105543 0.0527716 
586 1.7021e+21 0 379.289 8.9133 0.000896982 0.0448491 
587 1.2454e+21 0 951.039 16.3527 0.00163012 0.0815062 
588 1.0268e+21 0 637.043 9.03104 0.0017462 0.0873101 
589 1.5314e+21 0 580.701 12.2779 0.00113769 0.0568846 
590 1.4039e+21 0 717.564 13.9085 0.00132516 0.0662581 
591 1.6706e+21 0 442.439 10.2049 0.000958584 0.0479292 
592 1.671e+21 0 968.914 22.3535 0.00122197 0.0610984 
593 1.1568e+21 0 249.122 3.97881 0.00115856 0.0579278 
594 1.4549e+21 0 200.094 4.01929 0.000860671 0.0430336 
595 2.1336e+21 0 251.205 7.39989 0.000629773 0.0314886 
596 1.7498e+21 0 201.999 4.88 0.000717724 0.0358862 
597 2.3826e+21 0 311.492 10.2466 0.000602845 0.0301422 
598 1.8011e+21 0 245.811 6.11256 0.000741032 0.0370516 
599 2.2656e+21 0 278.099 8.69894 0.000612078 0.0306039 
600 1.7809e+21 0 172.296 4.23642 0.000671265 0.0335632 
601 1.1173e+21 0 204.008 3.14702 0.00112748 0.056374 
602 9.666e+20 0 331.375 4.42231 0.00151475 0.0757374 
603 9.75e+20 0 274.226 3.69144 0.00141611 0.0708055 
604 1.5293e+21 0 210.43 4.44307 0.000831685 0.0415842 
605 2.2335e+21 0 347.82 10.7257 0.00066546 0.033273 
606 1.2871e+21 0 175.449 3.11779 0.000934034 0.0467017 
607 1.5653e+21 0 209.654 4.5309 0.000811627 0.0405813 
608 9.804e+20 0 234.182 3.16986 0.00134105 0.0670527 
609 2.2512e+21 0 259.437 8.0636 0.00060287 0.0301435 
610 2.6846e+21 0 179.985 6.67112 0.000451369 0.0225684 
611 1.0839e+21 0 233.234 3.49031 0.00121147 0.0605737 
612 1.2802e+21 0 236.985 4.18873 0.0010308 0.0515399 
613 2.3541e+21 0 1018.75 33.1113 0.000880976 0.0440488 
614 2.3345e+21 0 593.18 19.1189 0.000751246 0.0375623 
615 2.1583e+21 0 528.721 15.7551 0.000784109 0.0392054 
616 2.0089e+21 0 650.274 18.0359 0.000898234 0.0449117 
617 1.5574e+21 0 352.292 7.57507 0.000958138 0.0479069 
618 9.192e+20 0 444.327 5.63892 0.00174448 0.087224 
619 1.0157e+21 0 591.573 8.29577 0.00172522 0.0862611 
620 1.9166e+21 0 559.402 14.8026 0.000898568 0.0449284 
621 8.085e+20 0 346.844 3.87166 0.00183675 0.0918374 
622 9.068e+20 0 830.156 10.3933 0.00214643 0.107321 
623 1.982e+21 0 827.736 22.6506 0.00098114 0.049057 
624 1.7973e+21 0 551.866 13.6942 0.000954192 0.0477096 
625 1.3491e+21 0 924.837 17.2263 0.00149185 0.0745923 
626 1.8997e+21 0 757.749 19.8744 0.000995992 0.0497996 
627 8.142e+20 0 1049.36 11.7962 0.00257066 0.128533 
628 1.0758e+21 0 876.483 13.0184 0.00183995 0.0919977 
629 2.9109e+21 0 602.91 24.2305 0.000605535 0.0302767 
630 1.819e+21 0 1052.36 26.4291 0.00115167 0.0575833 
631 9.613e+20 0 677.298 8.98921 0.00190095 0.0950475 
632 1.4707e+21 0 411.32 8.35193 0.00106453 0.0532267 
633 9.72e+20 0 215.673 2.89431 0.00131856 0.0659278 
634 1.1807e+21 0 538.397 8.77659 0.00144142 0.072071 
635 5.819e+20 0 488.114 3.9215 0.00283714 0.141857 
636 1.7913e+21 0 600.713 14.8566 0.000982894 0.0491447 
637 2.1409e+21 0 603.022 17.8243 0.00082337 0.0411685 
638 1.4175e+21 0 476.473 9.3249 0.001156 0.0577999 
639 9.508e+20 0 296.893 3.89738 0.00148835 0.0744175 
640 1.9606e+21 0 450.228 12.1872 0.000821227 0.0410613 
641 2.0491e+21 0 423.279 11.9749 0.000770867 0.0385433 
642 1.2032e+21 0 202.198 3.35891 0.0010441 0.0522049 
643 1.3254e+21 0 274.276 5.01901 0.00104179 0.0520894 
644 1.8137e+21 0 228.476 5.72123 0.000719388 0.0359694 
645 2.6939e+21 0 206.373 7.67569 0.000469298 0.0234649 
646 1.1958e+21 0 356.528 5.88621 0.0012525 0.0626251 
647 1.3941e+21 0 274.512 5.2837 0.000990713 0.0495357 
648 1.7277e+21 0 298.729 7.12572 0.000820646 0.0410323 
649 4.774e+20 0 367.542 2.42255 0.00316702 0.158351 
650 7.966e+20 0 326.352 3.5893 0.00182932 0.0914662 
651 1.0386e+21 0 227.762 3.26597 0.00125504 0.0627522 
652 1.3897e+21 0 293.219 5.62595 0.00101437 0.0507185 
653 1.7643e+21 0 243.757 5.93762 0.000754522 0.0377261 
654 1.2738e+21 0 215.846 3.79602 0.0010064 0.0503201 
655 4.885e+20 0 115.671 0.780141 0.00216283 0.108142 
656 1.0128e+21 0 263.045 3.67821 0.00134578 0.0672889 
657 1.8572e+21 0 328.982 8.43556 0.000786598 0.0393299 
658 1.8635e+21 0 286.138 7.36186 0.000750753 0.0375376 
659 9.813e+20 0 241.579 3.27298 0.0013528 0.0676401 
660 9.119e+20 0 359.776 4.52963 0.00164707 0.0823533 
661 1.4094e+21 0 245.909 4.78511 0.000947095 0.0473548 
662 1.343e+21 0 399.05 7.39923 0.00115486 0.0577431 
663 1.5028e+21 0 1178.19 24.4455 0.00144365 0.0721827 
664 1.0432e+21 0 689.789 9.93498 0.00176166 0.0880831 
665 1.9917e+21 0 422.946 11.6303 0.000792889 0.0396444 
666 1.077e+21 0 174.089 2.58863 0.00111355 0.0556777 
667 2.6291e+21 0 505.1 18.3345 0.000634641 0.031732 
668 3.7146e+21 0 602.655 30.9075 0.000474458 0.0237229 
669 1.2841e+21 0 336.358 5.96326 0.00114551 0.0572753 
670 1.2315e+21 0 251.039 4.26834 0.00109087 0.0545435 
671 1.622e+21 0 436.405 9.7729 0.000983112 0.0491556 
672 7.804e+20 0 368.772 3.97336 0.00193939 0.0969696 
673 2.1777e+21 0 510.903 15.361 0.000768909 0.0384454 
674 1.7946e+21 0 513.76 12.7295 0.000934665 0.0467332 
675 1.6489e+21 0 379.279 8.63447 0.000925914 0.0462957 
676 1.2624e+21 0 435.192 7.58509 0.00126207 0.0631033 
677 1.52e+21 0 646.94 13.5766 0.00118526 0.0592628 
678 1.1271e+21 0 312.883 4.86887 0.00127613 0.0638064 
679 6.218e+20 0 384.792 3.30339 0.00246636 0.123318 
680 6.458e+20 0 487.519 4.34683 0.00255545 0.127773 
681 1.7733e+21 0 850.077 20.8125 0.0011057 0.0552851 
682 1.698e+21 0 366.922 8.6019 0.000889955 0.0444978 
683 1.9106e+21 0 592.284 15.6237 0.000917492 0.0458746 
684 2.724e+21 0 368.291 13.851 0.000555393 0.0277696 
685 2.3318e+21 0 396.558 12.7668 0.000663853 0.0331927 
686 1.3894e+21 0 237.445 4.55485 0.000950354 0.0475177 
687 1.5376e+21 0 473.257 10.0467 0.00106347 0.0531734 
688 1.8852e+21 0 284.259 7.39868 0.000740597 0.0370298 
689 1.3141e+21 0 253.761 4.60402 0.00102573 0.0512863 
690 1.9712e+21 0 391.356 10.6509 0.000782087 0.0391043 
691 2.4599e+21 0 341.805 11.6086 0.000600955 0.0300477 
692 1.7145e+21 0 278.461 6.59152 0.000809147 0.0404574 
693 2.2809e+21 0 291.611 9.18319 0.00061698 0.030849 
694 7.629e+20 0 346.483 3.64949 0.00194591 0.0972953 
695 1.0036e+21 0 224.151 3.10588 0.00129239 0.0646197 
696 2.1071e+21 0 285.66 8.31033 0.000663615 0.0331808 
697 1.9407e+21 0 236.02 6.32397 0.000679115 0.0339558 
698 1.7104e+21 0 285.767 6.74828 0.000817625 0.0408812 
699 1.4178e+21 0 293.817 5.75143 0.000994895 0.0497447 
700 7.262e+20 0 306.115 3.0692 0.00196723 0.0983617 