ITEM: TIMESTEP
5000
ITEM: NUMBER OF CELLS
2500
ITEM: BOX BOUNDS oo rr pp
0 1.5
0 0.5
-0.5 0.5
ITEM: CELLS id f_1[1] f_1[6] f_5[1] f_5[2] c_3[1] c_3[2] 
1 8.338e+20 0 73.4251 0.845259 0.00110062 0.0550311 
2 1.5298e+21 0 195.047 4.11962 0.000812076 0.0406038 
3 1.7013e+21 0 202.752 4.76245 0.000739038 0.0369519 
4 1.9778e+21 0 470.699 12.8531 0.000825384 0.0412692 
5 1.1439e+21 0 339.455 5.36109 0.00128956 0.0644781 
6 2.0276e+21 0 264.119 7.39375 0.000673075 0.0336537 
7 1.4607e+21 0 226.882 4.57556 0.000891302 0.0445651 
8 1.2573e+21 0 208.813 3.62477 0.00100919 0.0504596 
9 1.4449e+21 0 81.0614 1.61709 0.000654912 0.0327456 
10 1.7603e+21 0 163.664 3.97761 0.000668385 0.0334192 
11 1.0889e+21 0 274.78 4.131 0.00126878 0.0634388 
12 1.1593e+21 0 263.383 4.21567 0.00117618 0.0588091 
13 1.3262e+21 0 912.91 16.7155 0.00151151 0.0755756 
14 3.6204e+21 0 2247.11 112.322 0.000732041 0.036602 
15 0 0 0 0 1e+20 5e+21 
16 0 0 0 0 1e+20 5e+21 
17 0 0 0 0 1e+20 5e+21 
18 0 0 0 0 1e+20 5e+21 
19 0 0 0 0 1e+20 5e+21 
20 0 0 0 0 1e+20 5e+21 
21 0 0 0 0 1e+20 5e+21 
22 0 0 0 0 1e+20 5e+21 
23 0 0 0 0 1e+20 5e+21 
24 0 0 0 0 1e+20 5e+21 
25 0 0 0 0 1e+20 5e+21 
26 0 0 0 0 1e+20 5e+21 
27 0 0 0 0 1e+20 5e+21 
28 0 0 0 0 1e+20 5e+21 
29 0 0 0 0 1e+20 5e+21 
30 0 0 0 0 1e+20 5e+21 
31 0 0 0 0 1e+20 5e+21 
32 0 0 0 0 1e+20 5e+21 
33 0 0 0 0 1e+20 5e+21 
34 0 0 0 0 1e+20 5e+21 
35 0 0 0 0 1e+20 5e+21 
36 0 0 0 0 1e+20 5e+21 
37 0 0 0 0 1e+20 5e+21 
38 0 0 0 0 1e+20 5e+21 
39 0 0 0 0 1e+20 5e+21 
40 0 0 0 0 1e+20 5e+21 
41 4.812e+20 0 381.55 2.53489 0.00317865 0.158933 
42 2.0327e+21 0 290.171 8.14349 0.000691254 0.0345627 
43 1.7176e+21 0 261.991 6.21286 0.000792565 0.0396282 
44 1.05e+21 0 113.309 1.64261 0.000999817 0.0499908 
45 1.6739e+21 0 139.103 3.21477 0.000668333 0.0334167 
46 1.4854e+21 0 129.792 2.66179 0.000737142 0.0368571 
47 1.8118e+21 0 254.576 6.36812 0.0007447 0.037235 
48 1.1981e+21 0 224.526 3.714 0.00108315 0.0541574 
49 1.3757e+21 0 349.786 6.64369 0.00108229 0.0541144 
50 1.2827e+21 0 185.427 3.28384 0.000953447 0.0476724 
51 8.856e+20 0 274.694 3.35869 0.00155989 0.0779944 
52 1.5154e+21 0 367.5 7.68897 0.000997679 0.0498839 
53 1.2725e+21 0 420.318 7.38446 0.00123862 0.0619312 
54 1.4467e+21 0 453.962 9.06737 0.0011158 0.0557899 
55 1.6415e+21 0 224.046 5.07764 0.000790045 0.0395023 
56 1.3202e+21 0 198.685 3.62149 0.00094641 0.0473205 
57 1.885e+21 0 194.67 5.06634 0.000658657 0.0329329 
58 1.9862e+21 0 315.25 8.64493 0.000725852 0.0362926 
59 1.7011e+21 0 287.777 6.75879 0.000823883 0.0411941 
60 1.6975e+21 0 215.039 5.03977 0.000754325 0.0377163 
61 2.2139e+21 0 248.865 7.60686 0.000605172 0.0302586 
62 1.557e+21 0 119.352 2.56567 0.000685199 0.0342599 
63 1.4482e+21 0 633.046 12.6575 0.00123568 0.0617838 
64 4.4145e+21 0 1507.86 91.9022 0.000530516 0.0265258 
65 0 0 0 0 1e+20 5e+21 
66 0 0 0 0 1e+20 5e+21 
67 0 0 0 0 1e+20 5e+21 
68 0 0 0 0 1e+20 5e+21 
69 0 0 0 0 1e+20 5e+21 
70 0 0 0 0 1e+20 5e+21 
71 0 0 0 0 1e+20 5e+21 
72 0 0 0 0 1e+20 5e+21 
73 0 0 0 0 1e+20 5e+21 
74 0 0 0 0 1e+20 5e+21 
75 0 0 0 0 1e+20 5e+21 
76 0 0 0 0 1e+20 5e+21 
77 0 0 0 0 1e+20 5e+21 
78 0 0 0 0 1e+20 5e+21 
79 0 0 0 0 1e+20 5e+21 
80 0 0 0 0 1e+20 5e+21 
81 0 0 0 0 1e+20 5e+21 
82 0 0 0 0 1e+20 5e+21 
83 0 0 0 0 1e+20 5e+21 
84 0 0 0 0 1e+20 5e+21 
85 0 0 0 0 1e+20 5e+21 
86 0 0 0 0 1e+20 5e+21 
87 0 0 0 0 1e+20 5e+21 
88 0 0 0 0 1e+20 5e+21 
89 0 0 0 0 1e+20 5e+21 
90 0 0 0 0 1e+20 5e+21 
91 4.909e+20 0 211.324 1.43227 0.00259435 0.129718 
92 8.049e+20 0 238.356 2.64882 0.00164243 0.0821214 
93 1.1887e+21 0 61.5556 1.01024 0.000730952 0.0365476 
94 1.7131e+21 0 120.316 2.84571 0.000624318 0.0312159 
95 1.4904e+21 0 128.173 2.63743 0.000731816 0.0365908 
96 1.3671e+21 0 238.702 4.50547 0.000967438 0.0483719 
97 1.8167e+21 0 192.144 4.8194 0.000680658 0.0340329 
98 2.3516e+21 0 406.501 13.198 0.000663336 0.0331668 
99 1.1952e+21 0 426.408 7.03638 0.00132463 0.0662313 
100 1.585e+21 0 206.875 4.5271 0.00079823 0.0399115 
101 1.7602e+21 0 545.723 13.2623 0.000970929 0.0485465 
102 1.2822e+21 0 229.621 4.06492 0.00101917 0.0509584 
103 1.4889e+21 0 358.343 7.36627 0.00100752 0.0503762 
104 1.525e+21 0 264.614 5.57143 0.000895423 0.0447712 
105 1.6655e+21 0 230.081 5.29065 0.000785103 0.0392551 
106 1.0265e+21 0 208.408 2.95363 0.00123536 0.0617678 
107 2.0134e+21 0 317.419 8.82361 0.00071757 0.0358785 
108 1.3347e+21 0 278.778 5.13718 0.00103976 0.0519881 
109 1.0634e+21 0 229.549 3.3702 0.00122875 0.0614374 
110 1.4116e+21 0 289.719 5.64639 0.000994922 0.0497461 
111 1.6593e+21 0 177.706 4.07108 0.000727395 0.0363698 
112 1.1173e+21 0 189.331 2.92062 0.00110168 0.0550842 
113 1.6116e+21 0 1187.11 26.4139 0.00134935 0.0674673 
114 5.3838e+21 0 1606.8 119.435 0.000443657 0.0221828 
115 0 0 0 0 1e+20 5e+21 
116 0 0 0 0 1e+20 5e+21 
117 0 0 0 0 1e+20 5e+21 
118 0 0 0 0 1e+20 5e+21 
119 0 0 0 0 1e+20 5e+21 
120 0 0 0 0 1e+20 5e+21 
121 0 0 0 0 1e+20 5e+21 
122 0 0 0 0 1e+20 5e+21 
123 0 0 0 0 1e+20 5e+21 
124 0 0 0 0 1e+20 5e+21 
125 0 0 0 0 1e+20 5e+21 
126 0 0 0 0 1e+20 5e+21 
127 0 0 0 0 1e+20 5e+21 
128 0 0 0 0 1e+20 5e+21 
129 0 0 0 0 1e+20 5e+21 
130 0 0 0 0 1e+20 5e+21 
131 0 0 0 0 1e+20 5e+21 
132 0 0 0 0 1e+20 5e+21 
133 0 0 0 0 1e+20 5e+21 
134 0 0 0 0 1e+20 5e+21 
135 0 0 0 0 1e+20 5e+21 
136 0 0 0 0 1e+20 5e+21 
137 0 0 0 0 1e+20 5e+21 
138 0 0 0 0 1e+20 5e+21 
139 0 0 0 0 1e+20 5e+21 
140 0 0 0 0 1e+20 5e+21 
141 8.331e+20 0 319.505 3.675 0.00173772 0.0868858 
142 2.3113e+21 0 312.765 9.98064 0.000622228 0.0311114 
143 1.587e+21 0 237.148 5.19612 0.000831701 0.041585 
144 1.1768e+21 0 198.115 3.21886 0.00106079 0.0530395 
145 1.4052e+21 0 157.169 3.04922 0.000826844 0.0413422 
146 1.7948e+21 0 146.642 3.63376 0.000633595 0.0316797 
147 1.4155e+21 0 233.641 4.56607 0.000928172 0.0464086 
148 1.3431e+21 0 218.885 4.0589 0.000958621 0.047931 
149 1.0169e+21 0 267.068 3.74959 0.00134667 0.0673337 
150 1.3772e+21 0 331.087 6.29539 0.00106285 0.0531426 
151 8.963e+20 0 558.765 6.91459 0.00192077 0.0960386 
152 1.1872e+21 0 338.368 5.54622 0.00124129 0.0620647 
153 1.458e+21 0 133.353 2.68437 0.000757323 0.0378662 
154 1.2369e+21 0 217.09 3.7073 0.00103827 0.0519137 
155 1.424e+21 0 355.923 6.99761 0.00105123 0.0525616 
156 1.4275e+21 0 269.605 5.31359 0.000962139 0.0481069 
157 1.1911e+21 0 388.799 6.39377 0.00129168 0.064584 
158 1.5856e+21 0 221.789 4.8553 0.000815334 0.0407667 
159 2.0036e+21 0 290.106 8.0251 0.000701244 0.0350622 
160 1.4136e+21 0 196.52 3.83545 0.000880882 0.0440441 
161 1.7137e+21 0 216.325 5.11829 0.000748577 0.0374288 
162 1.6258e+21 0 203.736 4.57318 0.000774519 0.0387259 
163 1.8307e+21 0 1317.6 33.3031 0.00122688 0.0613442 
164 6.6894e+21 0 1515.5 139.967 0.000350649 0.0175325 
165 0 0 0 0 1e+20 5e+21 
166 0 0 0 0 1e+20 5e+21 
167 0 0 0 0 1e+20 5e+21 
168 0 0 0 0 1e+20 5e+21 
169 0 0 0 0 1e+20 5e+21 
170 0 0 0 0 1e+20 5e+21 
171 0 0 0 0 1e+20 5e+21 
172 0 0 0 0 1e+20 5e+21 
173 0 0 0 0 1e+20 5e+21 
174 0 0 0 0 1e+20 5e+21 
175 0 0 0 0 1e+20 5e+21 
176 0 0 0 0 1e+20 5e+21 
177 0 0 0 0 1e+20 5e+21 
178 0 0 0 0 1e+20 5e+21 
179 0 0 0 0 1e+20 5e+21 
180 0 0 0 0 1e+20 5e+21 
181 0 0 0 0 1e+20 5e+21 
182 0 0 0 0 1e+20 5e+21 
183 0 0 0 0 1e+20 5e+21 
184 0 0 0 0 1e+20 5e+21 
185 0 0 0 0 1e+20 5e+21 
186 0 0 0 0 1e+20 5e+21 
187 0 0 0 0 1e+20 5e+21 
188 0 0 0 0 1e+20 5e+21 
189 0 0 0 0 1e+20 5e+21 
190 0 0 0 0 1e+20 5e+21 
191 2.743e+20 0 77.9781 0.295312 0.00340858 0.170429 
192 1.2442e+21 0 188.74 3.24219 0.000988362 0.0494181 
193 1.6054e+21 0 261.748 5.80163 0.000847712 0.0423856 
194 8.212e+20 0 217.568 2.46676 0.00156493 0.0782463 
195 8.532e+20 0 99.3269 1.17004 0.00118121 0.0590606 
196 1.3992e+21 0 198.752 3.83951 0.000893069 0.0446535 
197 1.1969e+21 0 210.524 3.47891 0.00106281 0.0531403 
198 1.8083e+21 0 223.996 5.59235 0.00071712 0.035856 
199 2.0864e+21 0 199.998 5.76112 0.000600079 0.030004 
200 1.4596e+21 0 199.23 4.01487 0.00085675 0.0428375 
201 1.501e+21 0 340.512 7.05661 0.000983713 0.0491856 
202 1.7891e+21 0 188.23 4.6495 0.000686763 0.0343382 
203 1.2357e+21 0 167.776 2.86238 0.000959492 0.0479746 
204 1.3893e+21 0 101.893 1.95444 0.000731167 0.0365583 
205 1.5017e+21 0 118.664 2.46028 0.000709159 0.035458 
206 1.4225e+21 0 219.88 4.31839 0.000906387 0.0453193 
207 2.083e+21 0 487.173 14.0106 0.000792101 0.0396051 
208 1.7309e+21 0 235.796 5.63498 0.000761207 0.0380603 
209 1.654e+21 0 277.872 6.34547 0.000838194 0.0419097 
210 9.11e+20 0 87.5534 1.10122 0.00106383 0.0531917 
211 1.824e+21 0 237.999 5.99353 0.000724438 0.0362219 
212 1.8574e+21 0 176.563 4.5278 0.000648517 0.0324258 
213 1.1489e+21 0 810.041 12.8491 0.00168129 0.0840646 
214 4.698e+21 0 1413.14 91.6604 0.000488576 0.0244288 
215 0 0 0 0 1e+20 5e+21 
216 0 0 0 0 1e+20 5e+21 
217 0 0 0 0 1e+20 5e+21 
218 0 0 0 0 1e+20 5e+21 
219 0 0 0 0 1e+20 5e+21 
220 0 0 0 0 1e+20 5e+21 
221 0 0 0 0 1e+20 5e+21 
222 0 0 0 0 1e+20 5e+21 
223 0 0 0 0 1e+20 5e+21 
224 0 0 0 0 1e+20 5e+21 
225 0 0 0 0 1e+20 5e+21 
226 0 0 0 0 1e+20 5e+21 
227 0 0 0 0 1e+20 5e+21 
228 0 0 0 0 1e+20 5e+21 
229 0 0 0 0 1e+20 5e+21 
230 0 0 0 0 1e+20 5e+21 
231 0 0 0 0 1e+20 5e+21 
232 0 0 0 0 1e+20 5e+21 
233 0 0 0 0 1e+20 5e+21 
234 0 0 0 0 1e+20 5e+21 
235 0 0 0 0 1e+20 5e+21 
236 0 0 0 0 1e+20 5e+21 
237 0 0 0 0 1e+20 5e+21 
238 0 0 0 0 1e+20 5e+21 
239 0 0 0 0 1e+20 5e+21 
240 0 0 0 0 1e+20 5e+21 
241 3.041e+20 0 102.025 0.428357 0.00334172 0.167086 
242 1.0466e+21 0 189.27 2.73492 0.00117599 0.0587994 
243 1.5377e+21 0 156.033 3.31261 0.000753899 0.0376949 
244 1.7896e+21 0 180.165 4.45153 0.000677314 0.0338657 
245 1.4358e+21 0 86.8224 1.72111 0.00067324 0.033662 
246 1.5694e+21 0 125.167 2.71211 0.000689884 0.0344942 
247 1.1593e+21 0 113.3 1.81346 0.000905531 0.0452766 
248 1.0726e+21 0 289.654 4.28943 0.00130928 0.065464 
249 1.5267e+21 0 274.087 5.7773 0.000904231 0.0452116 
250 1.6303e+21 0 251.592 5.66302 0.000824587 0.0412294 
251 1.615e+21 0 171.488 3.82375 0.000739142 0.0369571 
252 1.5374e+21 0 192.572 4.08754 0.000804868 0.0402434 
253 8.353e+20 0 156.248 1.80194 0.00138844 0.0694221 
254 1.2027e+21 0 220.085 3.65453 0.00107234 0.0536172 
255 9.898e+20 0 314.06 4.29183 0.00145484 0.0727418 
256 1.0829e+21 0 307.661 4.59985 0.0013213 0.0660651 
257 9.166e+20 0 377.058 4.77168 0.00166263 0.0831313 
258 1.5202e+21 0 568.779 11.9379 0.00113873 0.0569364 
259 8.924e+20 0 252.494 3.11095 0.00150809 0.0754043 
260 1.3936e+21 0 297.853 5.7309 0.00101646 0.050823 
261 1.4757e+21 0 151.008 3.07668 0.000777643 0.0388821 
262 1.6587e+21 0 276.084 6.32255 0.000834148 0.0417074 
263 1.7317e+21 0 810.126 19.3691 0.00111549 0.0557746 
264 3.6276e+21 0 1900.03 95.1621 0.000693561 0.034678 
265 0 0 0 0 1e+20 5e+21 
266 0 0 0 0 1e+20 5e+21 
267 0 0 0 0 1e+20 5e+21 
268 0 0 0 0 1e+20 5e+21 
269 0 0 0 0 1e+20 5e+21 
270 0 0 0 0 1e+20 5e+21 
271 0 0 0 0 1e+20 5e+21 
272 0 0 0 0 1e+20 5e+21 
273 0 0 0 0 1e+20 5e+21 
274 0 0 0 0 1e+20 5e+21 
275 0 0 0 0 1e+20 5e+21 
276 0 0 0 0 1e+20 5e+21 
277 0 0 0 0 1e+20 5e+21 
278 0 0 0 0 1e+20 5e+21 
279 0 0 0 0 1e+20 5e+21 
280 0 0 0 0 1e+20 5e+21 
281 0 0 0 0 1e+20 5e+21 
282 0 0 0 0 1e+20 5e+21 
283 0 0 0 0 1e+20 5e+21 
284 0 0 0 0 1e+20 5e+21 
285 0 0 0 0 1e+20 5e+21 
286 0 0 0 0 1e+20 5e+21 
287 0 0 0 0 1e+20 5e+21 
288 0 0 0 0 1e+20 5e+21 
289 0 0 0 0 1e+20 5e+21 
290 0 0 0 0 1e+20 5e+21 
291 5.884e+20 0 73.654 0.598346 0.00156116 0.0780578 
292 1.1436e+21 0 217.985 3.44178 0.00112441 0.0562206 
293 1.1749e+21 0 97.992 1.58955 0.000854193 0.0427097 
294 1.3259e+21 0 262.361 4.80279 0.00102716 0.0513578 
295 1.7968e+21 0 234.542 5.81839 0.000732077 0.0366038 
296 1.902e+21 0 131.104 3.44278 0.000577482 0.0288741 
297 1.1706e+21 0 188.826 3.05178 0.00105065 0.0525326 
298 1.5591e+21 0 377.137 8.11814 0.000977527 0.0488764 
299 1.5723e+21 0 292.924 6.35878 0.000896286 0.0448143 
300 1.9462e+21 0 340.135 9.13949 0.000758425 0.0379212 
301 1.315e+21 0 72.7628 1.32105 0.000695912 0.0347956 
302 2.3225e+21 0 421.117 13.5034 0.000679043 0.0339521 
303 1.7643e+21 0 315.87 7.6942 0.000817642 0.0408821 
304 1.4895e+21 0 195.347 4.01726 0.000834445 0.0417222 
305 2.4491e+21 0 268.321 9.07287 0.00055997 0.0279985 
306 1.9887e+21 0 220.315 6.04917 0.000648727 0.0324364 
307 1.9413e+21 0 373.875 10.0208 0.000782962 0.0391481 
308 1.5725e+21 0 111.339 2.41724 0.000663984 0.0331992 
309 2.2492e+21 0 341.274 10.5978 0.000656934 0.0328467 
310 1.6981e+21 0 310.36 7.27634 0.000844896 0.0422448 
311 1.0547e+21 0 246.072 3.58322 0.00126587 0.0632934 
312 9.072e+20 0 366.132 4.58589 0.00166461 0.0832305 
313 1.7089e+21 0 566.367 13.3628 0.00101165 0.0505827 
314 4.4526e+21 0 1912.53 117.572 0.000566204 0.0283102 
315 0 0 0 0 1e+20 5e+21 
316 0 0 0 0 1e+20 5e+21 
317 0 0 0 0 1e+20 5e+21 
318 0 0 0 0 1e+20 5e+21 
319 0 0 0 0 1e+20 5e+21 
320 0 0 0 0 1e+20 5e+21 
321 0 0 0 0 1e+20 5e+21 
322 0 0 0 0 1e+20 5e+21 
323 0 0 0 0 1e+20 5e+21 
324 0 0 0 0 1e+20 5e+21 
325 0 0 0 0 1e+20 5e+21 
326 0 0 0 0 1e+20 5e+21 
327 0 0 0 0 1e+20 5e+21 
328 0 0 0 0 1e+20 5e+21 
329 0 0 0 0 1e+20 5e+21 
330 0 0 0 0 1e+20 5e+21 
331 0 0 0 0 1e+20 5e+21 
332 0 0 0 0 1e+20 5e+21 
333 0 0 0 0 1e+20 5e+21 
334 0 0 0 0 1e+20 5e+21 
335 0 0 0 0 1e+20 5e+21 
336 0 0 0 0 1e+20 5e+21 
337 0 0 0 0 1e+20 5e+21 
338 0 0 0 0 1e+20 5e+21 
339 0 0 0 0 1e+20 5e+21 
340 0 0 0 0 1e+20 5e+21 
341 7.449e+20 0 140.538 1.44536 0.00150663 0.0753314 
342 1.7377e+21 0 87.7842 2.10608 0.000558177 0.0279089 
343 1.7042e+21 0 146.318 3.44273 0.000666822 0.0333411 
344 1.7096e+21 0 168.743 3.98293 0.000694757 0.0347379 
345 1.9122e+21 0 264.126 6.97312 0.0007137 0.035685 
346 1.2547e+21 0 184.435 3.19497 0.000973105 0.0486552 
347 1.8564e+21 0 259.558 6.65257 0.000731188 0.0365594 
348 1.1052e+21 0 274.472 4.18815 0.00124963 0.0624815 
349 1.2167e+21 0 216.855 3.64281 0.00105516 0.0527579 
350 1.9793e+21 0 196.239 5.36267 0.00062884 0.031442 
351 1.041e+21 0 452.026 6.49677 0.0015486 0.0774298 
352 6.8e+20 0 234.891 2.20526 0.0019353 0.0967649 
353 1.0293e+21 0 224.193 3.18601 0.0012602 0.0630099 
354 1.8914e+21 0 184.366 4.81447 0.000645455 0.0322728 
355 5.411e+20 0 150.497 1.12432 0.00211858 0.105929 
356 1.1292e+21 0 94.6314 1.47533 0.000879201 0.04396 
357 2.2573e+21 0 179.547 5.59566 0.000536407 0.0268203 
358 1.6836e+21 0 208.713 4.85145 0.000753545 0.0376773 
359 1.411e+21 0 442.652 8.62328 0.00113512 0.0567558 
360 1.1131e+21 0 361.815 5.56038 0.00135171 0.0675857 
361 1.135e+21 0 209.458 3.28228 0.00111901 0.0559503 
362 1.8686e+21 0 198.093 5.11055 0.000668037 0.0334019 
363 1.9215e+21 0 359.781 9.5447 0.000781663 0.0390832 
364 4.8747e+21 0 1810.66 121.862 0.000508475 0.0254237 
365 0 0 0 0 1e+20 5e+21 
366 0 0 0 0 1e+20 5e+21 
367 0 0 0 0 1e+20 5e+21 
368 0 0 0 0 1e+20 5e+21 
369 0 0 0 0 1e+20 5e+21 
370 0 0 0 0 1e+20 5e+21 
371 0 0 0 0 1e+20 5e+21 
372 0 0 0 0 1e+20 5e+21 
373 0 0 0 0 1e+20 5e+21 
374 0 0 0 0 1e+20 5e+21 
375 0 0 0 0 1e+20 5e+21 
376 0 0 0 0 1e+20 5e+21 
377 0 0 0 0 1e+20 5e+21 
378 0 0 0 0 1e+20 5e+21 
379 0 0 0 0 1e+20 5e+21 
380 0 0 0 0 1e+20 5e+21 
381 0 0 0 0 1e+20 5e+21 
382 0 0 0 0 1e+20 5e+21 
383 0 0 0 0 1e+20 5e+21 
384 0 0 0 0 1e+20 5e+21 
385 0 0 0 0 1e+20 5e+21 
386 0 0 0 0 1e+20 5e+21 
387 0 0 0 0 1e+20 5e+21 
388 0 0 0 0 1e+20 5e+21 
389 0 0 0 0 1e+20 5e+21 
390 0 0 0 0 1e+20 5e+21 
391 2.498e+20 0 197.838 0.682316 0.00499519 0.249759 
392 1.4416e+21 0 150.738 3.0002 0.000795595 0.0397798 
393 1.314e+21 0 135.705 2.46192 0.000844884 0.0422442 
394 2.0946e+21 0 219.706 6.35369 0.000615401 0.03077 
395 1.5027e+21 0 161.234 3.34512 0.000779341 0.038967 
396 1.3223e+21 0 123.267 2.2504 0.000814931 0.0407465 
397 1.5437e+21 0 277.424 5.91275 0.000897635 0.0448817 
398 1.3604e+21 0 160.341 3.01158 0.00085938 0.042969 
399 2.2463e+21 0 228.402 7.08354 0.000580787 0.0290394 
400 1.778e+21 0 301.79 7.40832 0.000799953 0.0399977 
401 8.925e+20 0 304.465 3.7517 0.001598 0.0798999 
402 2.132e+21 0 267.007 7.85948 0.000642278 0.0321139 
403 2.136e+21 0 326.232 9.62081 0.00068215 0.0341075 
404 9.222e+20 0 367.758 4.68242 0.00163979 0.0819893 
405 8.21e+20 0 191.122 2.16639 0.00150366 0.0751832 
406 2.0893e+21 0 166.34 4.79823 0.000565974 0.0282987 
407 1.452e+21 0 176.253 3.53335 0.000829132 0.0414566 
408 1.2294e+21 0 230.868 3.91869 0.00106473 0.0532363 
409 1.4341e+21 0 325.421 6.44331 0.00101524 0.0507618 
410 1.9833e+21 0 474.23 12.9855 0.000825004 0.0412502 
411 1.945e+21 0 224.646 6.03257 0.000667319 0.0333659 
412 9.287e+20 0 287.168 3.68209 0.00150812 0.0754058 
413 1.8994e+21 0 732.039 19.197 0.000985547 0.0492773 
414 3.4509e+21 0 1563.52 74.4934 0.000686321 0.0343161 
415 0 0 0 0 1e+20 5e+21 
416 0 0 0 0 1e+20 5e+21 
417 0 0 0 0 1e+20 5e+21 
418 0 0 0 0 1e+20 5e+21 
419 0 0 0 0 1e+20 5e+21 
420 0 0 0 0 1e+20 5e+21 
421 0 0 0 0 1e+20 5e+21 
422 0 0 0 0 1e+20 5e+21 
423 0 0 0 0 1e+20 5e+21 
424 0 0 0 0 1e+20 5e+21 
425 0 0 0 0 1e+20 5e+21 
426 0 0 0 0 1e+20 5e+21 
427 0 0 0 0 1e+20 5e+21 
428 0 0 0 0 1e+20 5e+21 
429 0 0 0 0 1e+20 5e+21 
430 0 0 0 0 1e+20 5e+21 
431 0 0 0 0 1e+20 5e+21 
432 0 0 0 0 1e+20 5e+21 
433 0 0 0 0 1e+20 5e+21 
434 0 0 0 0 1e+20 5e+21 
435 0 0 0 0 1e+20 5e+21 
436 0 0 0 0 1e+20 5e+21 
437 0 0 0 0 1e+20 5e+21 
438 0 0 0 0 1e+20 5e+21 
439 0 0 0 0 1e+20 5e+21 
440 0 0 0 0 1e+20 5e+21 
441 3.438e+20 0 146.62 0.695955 0.00330751 0.165376 
442 2.1018e+21 0 235.99 6.84807 0.000627038 0.0313519 
443 1.3094e+21 0 291.633 5.27221 0.00107477 0.0537385 
444 1.2327e+21 0 288.285 4.9064 0.00113756 0.0568782 
445 6.594e+20 0 198.198 1.8044 0.00189339 0.0946695 
446 1.1914e+21 0 250.962 4.12808 0.00112748 0.056374 
447 1.3834e+21 0 268.367 5.12578 0.000991394 0.0495697 
448 1.3897e+21 0 276.827 5.31145 0.000996441 0.0498221 
449 1.396e+21 0 296.027 5.70559 0.00101278 0.050639 
450 1.2349e+21 0 236.385 4.03028 0.00106777 0.0533886 
451 1.04e+21 0 377.911 5.42633 0.00146638 0.0733188 
452 2.1394e+21 0 333.125 9.83972 0.000685495 0.0342748 
453 1.3036e+21 0 249.128 4.48384 0.0010281 0.0514049 
454 2.0183e+21 0 314.046 8.75109 0.000713461 0.035673 
455 1.6383e+21 0 178.454 4.03649 0.00073768 0.036884 
456 1.3575e+21 0 361.634 6.77785 0.00110818 0.0554092 
457 9.362e+20 0 233.917 3.02353 0.00140388 0.0701938 
458 1.4639e+21 0 168.724 3.41013 0.000811337 0.0405669 
459 1.5581e+21 0 193.81 4.16921 0.000795755 0.0397877 
460 1.7783e+21 0 267.417 6.56564 0.000770392 0.0385196 
461 1.9916e+21 0 433.053 11.9077 0.000798755 0.0399378 
462 1.1663e+21 0 218.351 3.516 0.0011031 0.0551551 
463 1.023e+21 0 897.393 12.6748 0.00194911 0.0974557 
464 4.9188e+21 0 1922.12 130.534 0.000513335 0.0256668 
465 0 0 0 0 1e+20 5e+21 
466 0 0 0 0 1e+20 5e+21 
467 0 0 0 0 1e+20 5e+21 
468 0 0 0 0 1e+20 5e+21 
469 0 0 0 0 1e+20 5e+21 
470 0 0 0 0 1e+20 5e+21 
471 0 0 0 0 1e+20 5e+21 
472 0 0 0 0 1e+20 5e+21 
473 0 0 0 0 1e+20 5e+21 
474 0 0 0 0 1e+20 5e+21 
475 0 0 0 0 1e+20 5e+21 
476 0 0 0 0 1e+20 5e+21 
477 0 0 0 0 1e+20 5e+21 
478 0 0 0 0 1e+20 5e+21 
479 0 0 0 0 1e+20 5e+21 
480 0 0 0 0 1e+20 5e+21 
481 0 0 0 0 1e+20 5e+21 
482 0 0 0 0 1e+20 5e+21 
483 0 0 0 0 1e+20 5e+21 
484 0 0 0 0 1e+20 5e+21 
485 0 0 0 0 1e+20 5e+21 
486 0 0 0 0 1e+20 5e+21 
487 0 0 0 0 1e+20 5e+21 
488 0 0 0 0 1e+20 5e+21 
489 0 0 0 0 1e+20 5e+21 
490 0 0 0 0 1e+20 5e+21 
491 3.998e+20 0 161.82 0.89322 0.00293255 0.146627 
492 1.4199e+21 0 193.491 3.79317 0.000872761 0.043638 
493 1.7905e+21 0 480.619 11.8812 0.000917639 0.045882 
494 1.1183e+21 0 221.87 3.42563 0.00115617 0.0578083 
495 1.9516e+21 0 318.128 8.57188 0.000740805 0.0370402 
496 1.7969e+21 0 206.099 5.11309 0.000703279 0.035164 
497 2.1775e+21 0 123.697 3.71878 0.000495406 0.0247703 
498 1.4841e+21 0 151.702 3.10841 0.000774341 0.0387171 
499 1.2736e+21 0 251.755 4.42684 0.00105574 0.0527871 
500 8.329e+20 0 238.662 2.74448 0.00158785 0.0793923 
501 1.9463e+21 0 307.44 8.26139 0.000734994 0.0367497 
502 1.2577e+21 0 133.988 2.32662 0.000879227 0.0439614 
503 1.6338e+21 0 176.134 3.97307 0.000736717 0.0368358 
504 1.0556e+21 0 205.609 2.99658 0.00119628 0.0598139 
505 1.8095e+21 0 340.061 8.49569 0.000815666 0.0407833 
506 1.1874e+21 0 209.327 3.43167 0.00106942 0.0534708 
507 1.3732e+21 0 263.245 4.99088 0.00099281 0.0496405 
508 1.3758e+21 0 128.408 2.43911 0.000793225 0.0396613 
509 1.9744e+21 0 155.381 4.2356 0.000586389 0.0293194 
510 1.1828e+21 0 189.067 3.08752 0.00104023 0.0520113 
511 1.4827e+21 0 321.093 6.57306 0.000977891 0.0488946 
512 2.0268e+21 0 316.981 8.87007 0.000712521 0.035626 
513 2.0059e+21 0 302.692 8.38288 0.000709723 0.0354862 
514 1.8904e+21 0 1232.94 32.1794 0.00116393 0.0581964 
515 1.374e+21 0 1051.15 19.9405 0.00152412 0.0762058 
516 1.1237e+21 0 806.632 12.5144 0.00171675 0.0858375 
517 1.2824e+21 0 395.503 7.00256 0.00120609 0.0603047 
518 1.5631e+21 0 547.657 11.8189 0.00109456 0.0547279 
519 1.4352e+21 0 1170.01 23.1839 0.00150839 0.0754197 
520 1.814e+21 0 492.401 12.3322 0.000912577 0.0456289 
521 2.0575e+21 0 808.344 22.9625 0.000938217 0.0469108 
522 1.6596e+21 0 1387.27 31.7869 0.00137516 0.0687582 
523 1.5277e+21 0 1577.27 33.2681 0.00155454 0.0777269 
524 1.5958e+21 0 169.411 3.73252 0.000745214 0.0372607 
525 1.422e+21 0 261.84 5.14066 0.000957149 0.0478574 
526 9.692e+20 0 198.434 2.65529 0.00128865 0.0644326 
527 1.4616e+21 0 288.082 5.81336 0.0009592 0.04796 
528 1.2414e+21 0 1573.89 26.9755 0.00191178 0.0955891 
529 1.1502e+21 0 1147.85 18.2281 0.00187102 0.0935512 
530 1.1644e+21 0 391.087 6.28722 0.0013237 0.0661851 
531 1.9676e+21 0 217.23 5.90118 0.000652824 0.0326412 
532 1.5872e+21 0 234.693 5.14299 0.000828918 0.0414459 
533 1.8346e+21 0 877.731 22.2324 0.00107942 0.0539708 
534 7.833e+20 0 516.77 5.58868 0.00214527 0.107264 
535 2.0674e+21 0 650 18.5533 0.000872703 0.0436352 
536 1.5329e+21 0 1031.69 21.8346 0.00135823 0.0679116 
537 1.2503e+21 0 251.71 4.34508 0.00107536 0.0537679 
538 1.6717e+21 0 375.108 8.6576 0.000910161 0.045508 
539 9.705e+20 0 800.164 10.7216 0.0019828 0.0991398 
540 1.9449e+21 0 877.457 23.5617 0.0010181 0.050905 
541 9.651e+20 0 327.259 4.36061 0.00151124 0.0755618 
542 1.2802e+21 0 123.911 2.19014 0.000843091 0.0421546 
543 1.0461e+21 0 280.183 4.04668 0.00132868 0.0664342 
544 1.8136e+21 0 217.227 5.43924 0.000708255 0.0354128 
545 1.7747e+21 0 287.1 7.03463 0.000789139 0.0394569 
546 1.2113e+21 0 296.72 4.96228 0.00116806 0.0584028 
547 1.5314e+21 0 532.174 11.2519 0.00110733 0.0553664 
548 9.063e+20 0 341.009 4.26699 0.00162995 0.0814974 
549 1.517e+21 0 166.576 3.48885 0.000779835 0.0389917 
550 1.6982e+21 0 243.539 5.71007 0.000783674 0.0391837 
551 1.4424e+21 0 161.431 3.21481 0.000812228 0.0406114 
552 1.4633e+21 0 183.564 3.70855 0.00083316 0.041658 
553 1.2007e+21 0 351.106 5.82045 0.00124148 0.062074 
554 1.8507e+21 0 252.209 6.44436 0.000726939 0.0363469 
555 8.594e+20 0 215.507 2.55706 0.00149096 0.074548 
556 1.4512e+21 0 297.36 5.9579 0.000975615 0.0487807 
557 1.288e+21 0 282.482 5.02331 0.00108188 0.054094 
558 1.6564e+21 0 187.424 4.28622 0.000740797 0.0370398 
559 1.6078e+21 0 266.25 5.91024 0.000850934 0.0425467 
560 1.6714e+21 0 208.024 4.80041 0.000758269 0.0379134 
561 1.5674e+21 0 282.892 6.12186 0.000889427 0.0444714 
562 9.121e+20 0 266.452 3.3554 0.00150033 0.0750166 
563 1.0708e+21 0 293.735 4.34257 0.00131718 0.0658591 
564 1.8742e+21 0 174.72 4.52108 0.000640617 0.0320309 
565 1.45e+21 0 629.501 12.6022 0.001232 0.0615998 
566 1.1161e+21 0 701.23 10.8056 0.00165501 0.0827507 
567 2.1114e+21 0 392.013 11.4276 0.000730534 0.0365267 
568 1.7341e+21 0 363.356 8.69941 0.000868794 0.0434397 
569 1.2964e+21 0 252.452 4.51856 0.00103806 0.0519032 
570 1.7417e+21 0 280.768 6.75155 0.00079855 0.0399275 
571 1.4586e+21 0 267.643 5.38983 0.000939494 0.0469747 
572 1.5921e+21 0 282.863 6.21769 0.000875601 0.04378 
573 2.1064e+21 0 535.411 15.5708 0.000806566 0.0403283 
574 1.1049e+21 0 404.772 6.17471 0.00140994 0.0704969 
575 1.2605e+21 0 196.1 3.41275 0.000987219 0.0493609 
576 2.3525e+21 0 313.962 10.1974 0.000612055 0.0306027 
577 1.6975e+21 0 367.133 8.60433 0.000890376 0.0445188 
578 1.5207e+21 0 989.192 20.7686 0.00135139 0.0675696 
579 1.4858e+21 0 489.068 10.0326 0.00111181 0.0555907 
580 9.648e+20 0 432.466 5.76066 0.00164815 0.0824073 
581 1.6297e+21 0 249.816 5.62097 0.000823081 0.0411541 
582 2.4234e+21 0 565.251 18.9125 0.000712948 0.0356474 
583 1.172e+21 0 456.42 7.38543 0.00137963 0.0689816 
584 1.2897e+21 0 316.719 5.63957 0.00111946 0.055973 
585 1.134e+21 0 354.036 5.54299 0.00131789 0.0658946 
586 8.031e+20 0 257.726 2.85767 0.00168647 0.0843233 
587 2.3029e+21 0 409.632 13.0242 0.000678977 0.0339489 
588 1.2782e+21 0 256.972 4.53491 0.00105865 0.0529327 
589 2.0176e+21 0 329.408 9.17598 0.000724353 0.0362177 
590 1.8263e+21 0 410.596 10.3531 0.00085679 0.0428395 
591 1.8801e+21 0 171.522 4.4523 0.00063496 0.031748 
592 1.1642e+21 0 153.013 2.45945 0.000989751 0.0494875 
593 1.1468e+21 0 205.763 3.2579 0.0011014 0.0550699 
594 1.6591e+21 0 222.614 5.09928 0.000780112 0.0390056 
595 1.6515e+21 0 118.97 2.71269 0.00064535 0.0322675 
596 1.6015e+21 0 269.771 5.96492 0.000857767 0.0428884 
597 1.1512e+21 0 266.888 4.24193 0.00118932 0.0594661 
598 1.1212e+21 0 506.972 7.84785 0.00148988 0.0744938 
599 2.1786e+21 0 241.974 7.27828 0.000609647 0.0304824 
600 1.7776e+21 0 225.043 5.52311 0.000730561 0.0365281 
601 7.763e+20 0 179.279 1.9215 0.00155902 0.0779511 
602 1.7723e+21 0 239.426 5.85856 0.000746954 0.0373477 
603 9.479e+20 0 139.319 1.82329 0.00118078 0.059039 
604 1.2937e+21 0 139.205 2.4864 0.000864943 0.0432471 
605 1.4919e+21 0 255.325 5.25916 0.000905206 0.0452603 
606 1.4728e+21 0 185.53 3.77261 0.000830525 0.0415263 
607 1.5491e+21 0 174.685 3.7361 0.000775011 0.0387506 
608 1.1152e+21 0 267.173 4.11366 0.00122812 0.061406 
609 1.8812e+21 0 244.206 6.3427 0.000708039 0.035402 
610 9.725e+20 0 232.099 3.11634 0.00134821 0.0674104 
611 9.021e+20 0 60.0384 0.747768 0.000955755 0.0477877 
612 1.6817e+21 0 164.463 3.81856 0.000700681 0.0350341 
613 1.6114e+21 0 257.491 5.7286 0.000840274 0.0420137 
614 1.4104e+21 0 215.918 4.2045 0.000909024 0.0454512 
615 1.7038e+21 0 231.006 5.43408 0.00076841 0.0384205 
616 1.5658e+21 0 244.515 5.28598 0.000850994 0.0425497 
617 1.3738e+21 0 212.904 4.03823 0.000929184 0.0464592 
618 8.874e+20 0 149.748 1.83469 0.00128982 0.0644912 
619 9.394e+20 0 375.315 4.86777 0.00161995 0.0809973 
620 1.0069e+21 0 279.228 3.88176 0.00137895 0.0689476 
621 8.563e+20 0 263.893 3.11988 0.00159333 0.0796664 
622 1.1559e+21 0 176.573 2.81792 0.00104211 0.0521056 
623 9.03e+20 0 329.605 4.10927 0.00161875 0.0809373 
624 1.8065e+21 0 471.926 11.7705 0.00090438 0.045219 
625 1.2679e+21 0 456.31 7.98782 0.00127519 0.0637593 
626 1.6573e+21 0 423.668 9.69415 0.000953377 0.0476689 
627 1.6438e+21 0 431.49 9.79272 0.000966674 0.0483337 
628 1.4085e+21 0 869.048 16.8999 0.00140163 0.0700817 
629 1.0552e+21 0 262.976 3.83119 0.0012916 0.0645799 
630 2.0775e+21 0 335.302 9.61746 0.000707346 0.0353673 
631 1.7744e+21 0 170.049 4.16589 0.000670987 0.0335494 
632 1.3459e+21 0 195.503 3.63287 0.000923705 0.0461852 
633 1.7639e+21 0 263.118 6.40779 0.000772789 0.0386394 
634 1.8322e+21 0 364.985 9.23275 0.000823418 0.0411709 
635 2.3415e+21 0 338.204 10.9334 0.000629273 0.0314637 
636 1.1562e+21 0 249.233 3.97852 0.00115932 0.0579659 
637 7.775e+20 0 138.543 1.4872 0.00143707 0.0718537 
638 1.9249e+21 0 320.108 8.50721 0.000752526 0.0376263 
639 9.404e+20 0 101.279 1.31497 0.00107817 0.0539085 
640 1.874e+21 0 178.693 4.62338 0.000645166 0.0322583 
641 8.533e+20 0 342.411 4.03397 0.00173339 0.0866695 
642 2.5258e+21 0 325.214 11.341 0.000576317 0.0288158 
643 2.4455e+21 0 331.489 11.1923 0.000598778 0.0299389 
644 1.2432e+21 0 325.152 5.58098 0.00117083 0.0585415 
645 1.8791e+21 0 415.022 10.7672 0.000835488 0.0417744 
646 1.5446e+21 0 349.687 7.45726 0.000963857 0.0481929 
647 9.37e+20 0 362.746 4.69273 0.00160704 0.0803518 
648 1.9847e+21 0 324.311 8.88668 0.00073281 0.0366405 
649 1.3421e+21 0 167.986 3.11272 0.000883767 0.0441883 
650 1.8919e+21 0 175.015 4.57148 0.000634955 0.0317478 
651 2.4457e+21 0 196.483 6.63454 0.000509114 0.0254557 
652 1.7383e+21 0 240.738 5.77766 0.000762855 0.0381427 
653 1.6997e+21 0 349.604 8.20412 0.000875839 0.043792 
654 1.7706e+21 0 400.394 9.78795 0.000876877 0.0438439 
655 1.5158e+21 0 145.055 3.03569 0.000747689 0.0373845 
656 1.7115e+21 0 326.609 7.71771 0.000851648 0.0425824 
657 1.563e+21 0 318.389 6.87069 0.000925222 0.0462611 
658 1.4113e+21 0 170.912 3.33023 0.000844944 0.0422472 
659 1.6404e+21 0 401.269 9.08801 0.000947116 0.0473558 
660 1.5367e+21 0 203.839 4.32473 0.000819555 0.0409777 
661 1.142e+21 0 136.504 2.15225 0.000973905 0.0486952 
662 1.9194e+21 0 360.277 9.5474 0.000782852 0.0391426 
663 1.3796e+21 0 104.032 1.98155 0.000741066 0.0370533 
664 1.049e+21 0 196.849 2.85096 0.00118766 0.0593832 
665 1.7891e+21 0 192.489 4.75471 0.000691543 0.0345772 
666 1.2523e+21 0 178.186 3.08081 0.000964607 0.0482304 
667 1.4781e+21 0 209.895 4.2834 0.000859814 0.0429907 
668 2.6072e+21 0 158.36 5.70036 0.000446687 0.0223344 
669 1.2869e+21 0 242.934 4.31634 0.00103334 0.0516671 
670 2.2192e+21 0 294.582 9.02579 0.000636129 0.0318065 
671 1.8531e+21 0 222.158 5.68386 0.000697998 0.0348999 
672 1.4371e+21 0 251.113 4.98241 0.00093489 0.0467445 
673 1.3037e+21 0 260.905 4.69616 0.00104285 0.0521423 
674 1.1974e+21 0 246.728 4.07888 0.00111593 0.0557965 
675 1.7847e+21 0 310.259 7.64492 0.000803817 0.0401909 
676 1.5536e+21 0 245.731 5.27086 0.000858996 0.0429498 
677 1.16e+21 0 159.879 2.56054 0.00100694 0.0503472 
678 1.611e+21 0 495.454 11.02 0.00102954 0.051477 
679 1.4596e+21 0 355.095 7.15585 0.00102485 0.0512426 
680 1.0399e+21 0 175.443 2.5189 0.00115606 0.0578028 
681 1.1742e+21 0 134.865 2.18637 0.000943658 0.0471829 
682 1.3872e+21 0 183.134 3.50745 0.000878228 0.0439114 
683 9.161e+20 0 171.174 2.16503 0.0013023 0.0651149 
684 1.7935e+21 0 431.926 10.6953 0.000886265 0.0443132 
685 1.0688e+21 0 86.7595 1.28026 0.000904211 0.0452106 
686 1.7935e+21 0 379.63 9.40037 0.000851507 0.0425754 
687 1.7432e+21 0 192.022 4.62147 0.000709217 0.0354609 