ITEM: TIMESTEP
25000
ITEM: NUMBER OF CELLS
2500
ITEM: BOX BOUNDS oo rr pp
0 1.5
0 0.5
-0.5 0.5
ITEM: CELLS id f_1[1] f_1[6] f_5[1] f_5[2] c_3[1] c_3[2] 
1 3.5478e+21 0 321.724 15.7589 0.00040893 0.0204465 
2 2.1168e+21 0 287.565 8.40424 0.000661936 0.0330968 
3 1.3353e+21 0 170.386 3.14121 0.000892183 0.0446092 
4 7.834e+20 0 523.497 5.66214 0.00215361 0.107681 
5 1.8153e+21 0 191.145 4.79064 0.000680083 0.0340041 
6 1.9835e+21 0 248.14 6.79534 0.000674857 0.0337428 
7 1.2991e+21 0 80.2937 1.44015 0.000726268 0.0363134 
8 1.4073e+21 0 198.154 3.85011 0.000887099 0.044355 
9 2.697e+21 0 341.45 12.7143 0.000547947 0.0273973 
10 1.8679e+21 0 343.378 8.85543 0.000792545 0.0396273 
11 2.0018e+21 0 600.211 16.5885 0.000879309 0.0439655 
12 3.2797e+21 0 1578.27 71.4657 0.000724252 0.0362126 
13 5.5235e+21 0 3076.09 234.583 0.000528875 0.0264438 
14 1.36521e+22 0 1098.59 207.071 0.000155506 0.00777532 
15 0 0 0 0 1e+20 5e+21 
16 0 0 0 0 1e+20 5e+21 
17 0 0 0 0 1e+20 5e+21 
18 0 0 0 0 1e+20 5e+21 
19 0 0 0 0 1e+20 5e+21 
20 0 0 0 0 1e+20 5e+21 
21 0 0 0 0 1e+20 5e+21 
22 0 0 0 0 1e+20 5e+21 
23 0 0 0 0 1e+20 5e+21 
24 0 0 0 0 1e+20 5e+21 
25 0 0 0 0 1e+20 5e+21 
26 0 0 0 0 1e+20 5e+21 
27 0 0 0 0 1e+20 5e+21 
28 0 0 0 0 1e+20 5e+21 
29 0 0 0 0 1e+20 5e+21 
30 0 0 0 0 1e+20 5e+21 
31 0 0 0 0 1e+20 5e+21 
32 0 0 0 0 1e+20 5e+21 
33 0 0 0 0 1e+20 5e+21 
34 0 0 0 0 1e+20 5e+21 
35 0 0 0 0 1e+20 5e+21 
36 0 0 0 0 1e+20 5e+21 
37 0 0 0 0 1e+20 5e+21 
38 0 0 0 0 1e+20 5e+21 
39 0 0 0 0 1e+20 5e+21 
40 0 0 0 0 1e+20 5e+21 
41 0 0 0 0 1e+20 5e+21 
42 0 0 0 0 1e+20 5e+21 
43 0 0 0 0 1e+20 5e+21 
44 0 0 0 0 1e+20 5e+21 
45 0 0 0 0 1e+20 5e+21 
46 7.774e+20 0 332.712 3.57105 0.00188575 0.0942876 
47 2.1711e+21 0 315.179 9.44756 0.000663989 0.0331994 
48 9.381e+20 0 299.24 3.87572 0.00151219 0.0756093 
49 6.228e+20 0 144.581 1.2432 0.00181792 0.0908958 
50 1.2161e+21 0 132.839 2.23038 0.00090688 0.045344 
51 1.9296e+21 0 242.729 6.46654 0.000688983 0.0344491 
52 1.0231e+21 0 197.91 2.79556 0.00121976 0.0609881 
53 2.0722e+21 0 241.67 6.91414 0.000640701 0.0320351 
54 1.4577e+21 0 215.606 4.33923 0.000879134 0.0439567 
55 1.3767e+21 0 264.558 5.02855 0.000991814 0.0495907 
56 1.5567e+21 0 430.136 9.24472 0.00101977 0.0509883 
57 5.862e+20 0 217.208 1.75795 0.00219116 0.109558 
58 1.5565e+21 0 150.107 3.22576 0.000735907 0.0367954 
59 1.456e+21 0 190.564 3.83076 0.000847109 0.0423554 
60 1.187e+21 0 407.276 6.67455 0.00131493 0.0657465 
61 1.9169e+21 0 617.074 16.3313 0.000926175 0.0463088 
62 2.5681e+21 0 1926.05 68.2909 0.000983837 0.0491918 
63 6.281e+21 0 2870.43 248.919 0.000455221 0.0227611 
64 1.27449e+22 0 1159.87 204.094 0.000169402 0.00847011 
65 0 0 0 0 1e+20 5e+21 
66 0 0 0 0 1e+20 5e+21 
67 0 0 0 0 1e+20 5e+21 
68 0 0 0 0 1e+20 5e+21 
69 0 0 0 0 1e+20 5e+21 
70 0 0 0 0 1e+20 5e+21 
71 0 0 0 0 1e+20 5e+21 
72 0 0 0 0 1e+20 5e+21 
73 0 0 0 0 1e+20 5e+21 
74 0 0 0 0 1e+20 5e+21 
75 0 0 0 0 1e+20 5e+21 
76 0 0 0 0 1e+20 5e+21 
77 0 0 0 0 1e+20 5e+21 
78 0 0 0 0 1e+20 5e+21 
79 0 0 0 0 1e+20 5e+21 
80 0 0 0 0 1e+20 5e+21 
81 0 0 0 0 1e+20 5e+21 
82 0 0 0 0 1e+20 5e+21 
83 0 0 0 0 1e+20 5e+21 
84 0 0 0 0 1e+20 5e+21 
85 0 0 0 0 1e+20 5e+21 
86 0 0 0 0 1e+20 5e+21 
87 0 0 0 0 1e+20 5e+21 
88 0 0 0 0 1e+20 5e+21 
89 0 0 0 0 1e+20 5e+21 
90 0 0 0 0 1e+20 5e+21 
91 0 0 0 0 1e+20 5e+21 
92 0 0 0 0 1e+20 5e+21 
93 0 0 0 0 1e+20 5e+21 
94 0 0 0 0 1e+20 5e+21 
95 0 0 0 0 1e+20 5e+21 
96 6.023e+20 0 119.27 0.991806 0.00177092 0.0885461 
97 1.0341e+21 0 303.768 4.33698 0.0013782 0.0689102 
98 6.058e+20 0 150.987 1.26285 0.00189422 0.094711 
99 1.1515e+21 0 167.424 2.66173 0.00102898 0.0514491 
100 1.4968e+21 0 137.359 2.8386 0.000744492 0.0372246 
101 1.5782e+21 0 324.023 7.06027 0.000921307 0.0460654 
102 2.1456e+21 0 353.067 10.459 0.000695945 0.0347973 
103 1.1025e+21 0 246.087 3.74584 0.00121101 0.0605504 
104 1.8785e+21 0 208.478 5.40698 0.000675127 0.0337564 
105 1.1394e+21 0 317.266 4.99095 0.00126781 0.0633903 
106 1.1828e+21 0 212.973 3.47791 0.00107934 0.0539669 
107 1.1345e+21 0 252.105 3.94884 0.0011857 0.0592849 
108 1.3558e+21 0 370.95 6.94375 0.00111836 0.0559178 
109 1.1182e+21 0 229.999 3.55081 0.00116924 0.058462 
110 1.6655e+21 0 203.634 4.68249 0.000755939 0.0377969 
111 2.3654e+21 0 863.564 28.2022 0.00083298 0.041649 
112 2.4655e+21 0 3276.3 111.525 0.00120824 0.0604118 
113 4.2753e+21 0 2376.72 140.29 0.000630775 0.0315388 
114 1.368e+22 0 853.075 161.123 0.000143485 0.00717427 
115 0 0 0 0 1e+20 5e+21 
116 0 0 0 0 1e+20 5e+21 
117 0 0 0 0 1e+20 5e+21 
118 0 0 0 0 1e+20 5e+21 
119 0 0 0 0 1e+20 5e+21 
120 0 0 0 0 1e+20 5e+21 
121 0 0 0 0 1e+20 5e+21 
122 0 0 0 0 1e+20 5e+21 
123 0 0 0 0 1e+20 5e+21 
124 0 0 0 0 1e+20 5e+21 
125 0 0 0 0 1e+20 5e+21 
126 0 0 0 0 1e+20 5e+21 
127 0 0 0 0 1e+20 5e+21 
128 0 0 0 0 1e+20 5e+21 
129 0 0 0 0 1e+20 5e+21 
130 0 0 0 0 1e+20 5e+21 
131 0 0 0 0 1e+20 5e+21 
132 0 0 0 0 1e+20 5e+21 
133 0 0 0 0 1e+20 5e+21 
134 0 0 0 0 1e+20 5e+21 
135 0 0 0 0 1e+20 5e+21 
136 0 0 0 0 1e+20 5e+21 
137 0 0 0 0 1e+20 5e+21 
138 0 0 0 0 1e+20 5e+21 
139 0 0 0 0 1e+20 5e+21 
140 0 0 0 0 1e+20 5e+21 
141 0 0 0 0 1e+20 5e+21 
142 0 0 0 0 1e+20 5e+21 
143 0 0 0 0 1e+20 5e+21 
144 0 0 0 0 1e+20 5e+21 
145 0 0 0 0 1e+20 5e+21 
146 0 0 0 0 1e+20 5e+21 
147 4.201e+20 0 124.943 0.724682 0.00257582 0.128791 
148 1.0711e+21 0 82.3337 1.21756 0.000887743 0.0443871 
149 1.588e+21 0 143.416 3.14435 0.000711185 0.0355593 
150 1.6909e+21 0 162.07 3.78358 0.00069371 0.0346855 
151 1.6074e+21 0 280.21 6.21858 0.000864737 0.0432369 
152 8.065e+20 0 195.196 2.17349 0.00154074 0.077037 
153 4.999e+20 0 346.217 2.38954 0.00296895 0.148448 
154 1.5152e+21 0 280.71 5.87233 0.000917863 0.0458931 
155 1.3118e+21 0 207.508 3.75824 0.000965386 0.0482693 
156 1.3344e+21 0 261.649 4.82045 0.00101975 0.0509876 
157 2.9592e+21 0 283.866 11.5977 0.000471605 0.0235803 
158 1.6647e+21 0 279.324 6.41989 0.000834153 0.0417076 
159 8.544e+20 0 350.317 4.13243 0.00174345 0.0871725 
160 9.908e+20 0 291.645 3.98955 0.00142039 0.0710194 
161 1.2891e+21 0 2871.64 51.1093 0.00221831 0.110915 
162 3.1888e+21 0 3785.27 166.651 0.000976946 0.0488473 
163 5.1963e+21 0 1939.24 139.126 0.000487259 0.0243629 
164 1.47144e+22 0 941.067 191.182 0.000137521 0.00687603 
165 0 0 0 0 1e+20 5e+21 
166 0 0 0 0 1e+20 5e+21 
167 0 0 0 0 1e+20 5e+21 
168 0 0 0 0 1e+20 5e+21 
169 0 0 0 0 1e+20 5e+21 
170 0 0 0 0 1e+20 5e+21 
171 0 0 0 0 1e+20 5e+21 
172 0 0 0 0 1e+20 5e+21 
173 0 0 0 0 1e+20 5e+21 
174 0 0 0 0 1e+20 5e+21 
175 0 0 0 0 1e+20 5e+21 
176 0 0 0 0 1e+20 5e+21 
177 0 0 0 0 1e+20 5e+21 
178 0 0 0 0 1e+20 5e+21 
179 0 0 0 0 1e+20 5e+21 
180 0 0 0 0 1e+20 5e+21 
181 0 0 0 0 1e+20 5e+21 
182 0 0 0 0 1e+20 5e+21 
183 0 0 0 0 1e+20 5e+21 
184 0 0 0 0 1e+20 5e+21 
185 0 0 0 0 1e+20 5e+21 
186 0 0 0 0 1e+20 5e+21 
187 0 0 0 0 1e+20 5e+21 
188 0 0 0 0 1e+20 5e+21 
189 0 0 0 0 1e+20 5e+21 
190 0 0 0 0 1e+20 5e+21 
191 0 0 0 0 1e+20 5e+21 
192 0 0 0 0 1e+20 5e+21 
193 0 0 0 0 1e+20 5e+21 
194 4.23e+19 0 2.67337e-11 1.56129e-14 3.02229e-06 0.000151114 
195 0 0 0 0 1e+20 5e+21 
196 0 0 0 0 1e+20 5e+21 
197 5.007e+20 0 102.92 0.711473 0.0020351 0.101755 
198 1.2744e+21 0 294.949 5.18963 0.00110816 0.0554082 
199 1.1493e+21 0 185.676 2.94627 0.00106456 0.0532279 
200 1.2778e+21 0 250.429 4.41806 0.00105055 0.0525276 
201 1.8001e+21 0 229.038 5.6923 0.000725376 0.0362688 
202 1.2399e+21 0 230.467 3.94528 0.00105514 0.052757 
203 1.6708e+21 0 208.184 4.80237 0.000758721 0.0379361 
204 1.4622e+21 0 283.242 5.71805 0.000953784 0.0476892 
205 1.8845e+21 0 285.26 7.42199 0.00074168 0.037084 
206 6.999e+20 0 474.33 4.58353 0.00233796 0.116898 
207 8.395e+20 0 334.939 3.88212 0.00174987 0.0874937 
208 1.3999e+21 0 168.983 3.26605 0.000848833 0.0424417 
209 1.9441e+21 0 437.539 11.7441 0.000820889 0.0410445 
210 2.0356e+21 0 339.705 9.54723 0.000724832 0.0362416 
211 1.3246e+21 0 539.856 9.87293 0.00128591 0.0642953 
212 2.3664e+21 0 4061.93 132.71 0.00134557 0.0672786 
213 6.3028e+21 0 2536.98 220.767 0.000436609 0.0218305 
214 1.38921e+22 0 1128.98 216.539 0.000154118 0.00770589 
215 0 0 0 0 1e+20 5e+21 
216 0 0 0 0 1e+20 5e+21 
217 0 0 0 0 1e+20 5e+21 
218 0 0 0 0 1e+20 5e+21 
219 0 0 0 0 1e+20 5e+21 
220 0 0 0 0 1e+20 5e+21 
221 0 0 0 0 1e+20 5e+21 
222 0 0 0 0 1e+20 5e+21 
223 0 0 0 0 1e+20 5e+21 
224 0 0 0 0 1e+20 5e+21 
225 0 0 0 0 1e+20 5e+21 
226 0 0 0 0 1e+20 5e+21 
227 0 0 0 0 1e+20 5e+21 
228 0 0 0 0 1e+20 5e+21 
229 0 0 0 0 1e+20 5e+21 
230 0 0 0 0 1e+20 5e+21 
231 0 0 0 0 1e+20 5e+21 
232 0 0 0 0 1e+20 5e+21 
233 0 0 0 0 1e+20 5e+21 
234 0 0 0 0 1e+20 5e+21 
235 0 0 0 0 1e+20 5e+21 
236 0 0 0 0 1e+20 5e+21 
237 0 0 0 0 1e+20 5e+21 
238 0 0 0 0 1e+20 5e+21 
239 0 0 0 0 1e+20 5e+21 
240 0 0 0 0 1e+20 5e+21 
241 0 0 0 0 1e+20 5e+21 
242 0 0 0 0 1e+20 5e+21 
243 2.34e+19 0 1.4943e-11 4.82766e-15 4.56192e-06 0.000228096 
244 2.67e+20 0 3.52202e-11 1.29833e-13 5.21534e-07 2.60767e-05 
245 0 0 0 0 1e+20 5e+21 
246 0 0 0 0 1e+20 5e+21 
247 5.03e+20 0 336.194 2.33476 0.0029239 0.146195 
248 1.007e+21 0 189.445 2.63388 0.00122258 0.0611292 
249 1.0631e+21 0 73.0401 1.07206 0.000861823 0.0430911 
250 1.6073e+21 0 209.31 4.64484 0.000790016 0.0395008 
251 1.6274e+21 0 192.418 4.32338 0.000760169 0.0380084 
252 1.9128e+21 0 151.052 3.98914 0.000599995 0.0299997 
253 2.6807e+21 0 280.423 10.3787 0.000518635 0.0259318 
254 2.6003e+21 0 213.656 7.67046 0.000491446 0.0245723 
255 1.5367e+21 0 259.399 5.50353 0.00088314 0.044157 
256 1.6717e+21 0 189.507 4.37388 0.000736535 0.0368268 
257 1.5919e+21 0 113.627 2.49736 0.000660042 0.0330021 
258 8.714e+20 0 132.159 1.59001 0.0012636 0.0631802 
259 6.507e+20 0 185.345 1.66512 0.00187924 0.0939618 
260 1.0181e+21 0 131.849 1.85332 0.00108074 0.054037 
261 1.5422e+21 0 109.069 2.32233 0.00067272 0.033636 
262 1.0101e+21 0 2727.47 38.0371 0.00278618 0.139309 
263 5.3503e+21 0 3112.67 229.929 0.000548001 0.0274 
264 2.43207e+22 0 1248.66 419.278 9.08258e-05 0.00454129 
265 0 0 0 0 1e+20 5e+21 
266 0 0 0 0 1e+20 5e+21 
267 0 0 0 0 1e+20 5e+21 
268 0 0 0 0 1e+20 5e+21 
269 0 0 0 0 1e+20 5e+21 
270 0 0 0 0 1e+20 5e+21 
271 0 0 0 0 1e+20 5e+21 
272 0 0 0 0 1e+20 5e+21 
273 0 0 0 0 1e+20 5e+21 
274 0 0 0 0 1e+20 5e+21 
275 0 0 0 0 1e+20 5e+21 
276 0 0 0 0 1e+20 5e+21 
277 0 0 0 0 1e+20 5e+21 
278 0 0 0 0 1e+20 5e+21 
279 0 0 0 0 1e+20 5e+21 
280 0 0 0 0 1e+20 5e+21 
281 0 0 0 0 1e+20 5e+21 
282 0 0 0 0 1e+20 5e+21 
283 0 0 0 0 1e+20 5e+21 
284 0 0 0 0 1e+20 5e+21 
285 0 0 0 0 1e+20 5e+21 
286 0 0 0 0 1e+20 5e+21 
287 0 0 0 0 1e+20 5e+21 
288 0 0 0 0 1e+20 5e+21 
289 0 0 0 0 1e+20 5e+21 
290 0 0 0 0 1e+20 5e+21 
291 0 0 0 0 1e+20 5e+21 
292 0 0 0 0 1e+20 5e+21 
293 1.673e+20 0 8.71598e-11 2.01324e-13 1.10228e-06 5.51138e-05 
294 0 0 0 0 1e+20 5e+21 
295 0 0 0 0 1e+20 5e+21 
296 1.048e+20 0 -1.69807e-10 -2.45697e-13 -nan -nan 
297 8.185e+20 0 123.91 1.40025 0.00131866 0.0659328 
298 2.1078e+21 0 212.724 6.19056 0.000605455 0.0302728 
299 2.019e+21 0 179.236 4.99626 0.000599396 0.0299698 
300 1.4203e+21 0 197.948 3.88164 0.000878697 0.0439348 
301 2.654e+21 0 162.217 5.94404 0.000442097 0.0221048 
302 1.4469e+21 0 242.009 4.83452 0.000917989 0.0458994 
303 1.3474e+21 0 183.946 3.42193 0.000905411 0.0452705 
304 9.564e+20 0 280.676 3.70619 0.00145409 0.0727046 
305 1.4978e+21 0 248.103 5.1306 0.000893655 0.0446828 
306 1.0163e+21 0 358.736 5.03361 0.00147654 0.0738272 
307 5.774e+20 0 218.712 1.74354 0.00222932 0.111466 
308 6.151e+20 0 175.29 1.48863 0.00195392 0.0976961 
309 1.7823e+21 0 190.247 4.68147 0.000691665 0.0345832 
310 1.5523e+21 0 307.141 6.58258 0.00092127 0.0460635 
311 1.0045e+21 0 227.462 3.15458 0.00129712 0.064856 
312 1.3681e+21 0 2727.64 51.5215 0.00205714 0.102857 
313 5.9608e+21 0 3336.45 274.582 0.000502576 0.0251288 
314 8.964e+21 0 1437.56 177.915 0.000257425 0.0128712 
315 0 0 0 0 1e+20 5e+21 
316 0 0 0 0 1e+20 5e+21 
317 0 0 0 0 1e+20 5e+21 
318 0 0 0 0 1e+20 5e+21 
319 0 0 0 0 1e+20 5e+21 
320 0 0 0 0 1e+20 5e+21 
321 0 0 0 0 1e+20 5e+21 
322 0 0 0 0 1e+20 5e+21 
323 0 0 0 0 1e+20 5e+21 
324 0 0 0 0 1e+20 5e+21 
325 0 0 0 0 1e+20 5e+21 
326 0 0 0 0 1e+20 5e+21 
327 0 0 0 0 1e+20 5e+21 
328 0 0 0 0 1e+20 5e+21 
329 0 0 0 0 1e+20 5e+21 
330 0 0 0 0 1e+20 5e+21 
331 0 0 0 0 1e+20 5e+21 
332 0 0 0 0 1e+20 5e+21 
333 0 0 0 0 1e+20 5e+21 
334 0 0 0 0 1e+20 5e+21 
335 0 0 0 0 1e+20 5e+21 
336 0 0 0 0 1e+20 5e+21 
337 0 0 0 0 1e+20 5e+21 
338 0 0 0 0 1e+20 5e+21 
339 0 0 0 0 1e+20 5e+21 
340 0 0 0 0 1e+20 5e+21 
341 0 0 0 0 1e+20 5e+21 
342 0 0 0 0 1e+20 5e+21 
343 0 0 0 0 1e+20 5e+21 
344 2.566e+20 0 58.2235 0.206271 0.00332822 0.166411 
345 0 0 0 0 1e+20 5e+21 
346 0 0 0 0 1e+20 5e+21 
347 1.6586e+21 0 186.938 4.28078 0.000739219 0.0369609 
348 1.906e+21 0 142.354 3.74607 0.000591166 0.0295583 
349 7.905e+20 0 146.184 1.59546 0.00143716 0.071858 
350 1.2966e+21 0 138.636 2.48179 0.000861914 0.0430957 
351 1.7544e+21 0 137.154 3.32215 0.000634883 0.0317441 
352 1.744e+21 0 129.437 3.11664 0.000627306 0.0313653 
353 9.782e+20 0 264.727 3.57528 0.00139614 0.0698068 
354 8.932e+20 0 291.32 3.59255 0.00157505 0.0787525 
355 1.4261e+21 0 110.634 2.17832 0.000730708 0.0365354 
356 9.541e+20 0 342.766 4.51518 0.00155076 0.0775378 
357 7.413e+20 0 132.686 1.35801 0.0014872 0.0743601 
358 3.629e+20 0 133.033 0.666543 0.00304038 0.152019 
359 8.273e+20 0 129.024 1.47373 0.00132109 0.0660546 
360 1.405e+21 0 269.962 5.23676 0.000977948 0.0488974 
361 1.9928e+21 0 203.601 5.60179 0.000631751 0.0315876 
362 1.7282e+21 0 1439.48 34.3464 0.00133579 0.0667894 
363 4.5753e+21 0 3629.63 229.279 0.000672087 0.0336044 
364 1.11174e+22 0 1235.31 189.61 0.000198032 0.0099016 
365 0 0 0 0 1e+20 5e+21 
366 0 0 0 0 1e+20 5e+21 
367 0 0 0 0 1e+20 5e+21 
368 0 0 0 0 1e+20 5e+21 
369 0 0 0 0 1e+20 5e+21 
370 0 0 0 0 1e+20 5e+21 
371 0 0 0 0 1e+20 5e+21 
372 0 0 0 0 1e+20 5e+21 
373 0 0 0 0 1e+20 5e+21 
374 0 0 0 0 1e+20 5e+21 
375 0 0 0 0 1e+20 5e+21 
376 0 0 0 0 1e+20 5e+21 
377 0 0 0 0 1e+20 5e+21 
378 0 0 0 0 1e+20 5e+21 
379 0 0 0 0 1e+20 5e+21 
380 0 0 0 0 1e+20 5e+21 
381 0 0 0 0 1e+20 5e+21 
382 0 0 0 0 1e+20 5e+21 
383 0 0 0 0 1e+20 5e+21 
384 0 0 0 0 1e+20 5e+21 
385 0 0 0 0 1e+20 5e+21 
386 0 0 0 0 1e+20 5e+21 
387 0 0 0 0 1e+20 5e+21 
388 0 0 0 0 1e+20 5e+21 
389 0 0 0 0 1e+20 5e+21 
390 0 0 0 0 1e+20 5e+21 
391 0 0 0 0 1e+20 5e+21 
392 0 0 0 0 1e+20 5e+21 
393 1.738e+20 0 9.14339e-11 2.19402e-13 1.07692e-06 5.38458e-05 
394 4.53e+20 0 57.9636 0.362524 0.00188264 0.0941322 
395 0 0 0 0 1e+20 5e+21 
396 0 0 0 0 1e+20 5e+21 
397 8.193e+20 0 108.364 1.22578 0.00126375 0.0631873 
398 2.0856e+21 0 140.237 4.0381 0.000537755 0.0268877 
399 1.6313e+21 0 139.13 3.13357 0.000685828 0.0342914 
400 1.7561e+21 0 191.021 4.63141 0.000702868 0.0351434 
401 1.1179e+21 0 365.29 5.63799 0.0013499 0.0674952 
402 5.438e+20 0 240.815 1.80803 0.00243877 0.121939 
403 1.0552e+21 0 274.598 4.00052 0.00130903 0.0654515 
404 1.3763e+21 0 317.186 6.02713 0.0010495 0.052475 
405 1.8711e+21 0 283.979 7.33611 0.00074595 0.0372975 
406 1.5076e+21 0 181.732 3.78269 0.000806168 0.0403084 
407 1.5742e+21 0 238.269 5.17859 0.000839691 0.0419845 
408 2.7283e+21 0 251.083 9.45787 0.000492424 0.0246212 
409 1.404e+21 0 199.6 3.86911 0.000891191 0.0445595 
410 1.5448e+21 0 119.106 2.54032 0.000690169 0.0345084 
411 1.6518e+21 0 244.697 5.58044 0.000806873 0.0403437 
412 2.7967e+21 0 806.361 31.1357 0.00068971 0.0344855 
413 4.1906e+21 0 2291.29 132.569 0.000636263 0.0318132 
414 1.72686e+22 0 1340.22 319.535 0.000130754 0.00653771 
415 0 0 0 0 1e+20 5e+21 
416 0 0 0 0 1e+20 5e+21 
417 0 0 0 0 1e+20 5e+21 
418 0 0 0 0 1e+20 5e+21 
419 0 0 0 0 1e+20 5e+21 
420 0 0 0 0 1e+20 5e+21 
421 0 0 0 0 1e+20 5e+21 
422 0 0 0 0 1e+20 5e+21 
423 0 0 0 0 1e+20 5e+21 
424 0 0 0 0 1e+20 5e+21 
425 0 0 0 0 1e+20 5e+21 
426 0 0 0 0 1e+20 5e+21 
427 0 0 0 0 1e+20 5e+21 
428 0 0 0 0 1e+20 5e+21 
429 0 0 0 0 1e+20 5e+21 
430 0 0 0 0 1e+20 5e+21 
431 0 0 0 0 1e+20 5e+21 
432 0 0 0 0 1e+20 5e+21 
433 0 0 0 0 1e+20 5e+21 
434 0 0 0 0 1e+20 5e+21 
435 0 0 0 0 1e+20 5e+21 
436 0 0 0 0 1e+20 5e+21 
437 0 0 0 0 1e+20 5e+21 
438 0 0 0 0 1e+20 5e+21 
439 0 0 0 0 1e+20 5e+21 
440 0 0 0 0 1e+20 5e+21 
441 0 0 0 0 1e+20 5e+21 
442 0 0 0 0 1e+20 5e+21 
443 2.17e+19 0 7.54256e-12 2.25976e-15 3.97978e-06 0.000198989 
444 3.521e+20 0 31.6093 0.153661 0.00200708 0.100354 
445 0 0 0 0 1e+20 5e+21 
446 2.32e+19 0 4.81016e-11 1.54074e-14 6.61103e-06 0.000330552 
447 4.434e+20 0 148.199 0.907243 0.00257309 0.128654 
448 1.2986e+21 0 319.254 5.72393 0.00111454 0.0557269 
449 2.0347e+21 0 258.539 7.26291 0.000666302 0.0333151 
450 2.3652e+21 0 327.878 10.7069 0.000617008 0.0308504 
451 1.3781e+21 0 126.5 2.40688 0.000788234 0.0394117 
452 1.4143e+21 0 140.397 2.74146 0.000793281 0.0396641 
453 1.8529e+21 0 191.114 4.88908 0.000666249 0.0333125 
454 1.5318e+21 0 408.758 8.64474 0.00102009 0.0510047 
455 5.866e+20 0 216.099 1.75016 0.00218619 0.10931 
456 1.3358e+21 0 268.51 4.95205 0.00102689 0.0513446 
457 1.6134e+21 0 231.152 5.14899 0.000811622 0.0405811 
458 1.7565e+21 0 198.127 4.80481 0.00071071 0.0355355 
459 1.7224e+21 0 237.835 5.65578 0.000767007 0.0383503 
460 6.545e+20 0 278.348 2.51525 0.00211934 0.105967 
461 4.971e+20 0 109.94 0.754538 0.00209219 0.10461 
462 1.9752e+21 0 466.401 12.719 0.000824124 0.0412062 
463 6.0115e+21 0 3084.28 255.988 0.000486343 0.0243172 
464 1.41204e+22 0 1851.57 360.969 0.000176758 0.00883788 
465 0 0 0 0 1e+20 5e+21 
466 0 0 0 0 1e+20 5e+21 
467 0 0 0 0 1e+20 5e+21 
468 0 0 0 0 1e+20 5e+21 
469 0 0 0 0 1e+20 5e+21 
470 0 0 0 0 1e+20 5e+21 
471 0 0 0 0 1e+20 5e+21 
472 0 0 0 0 1e+20 5e+21 
473 0 0 0 0 1e+20 5e+21 
474 0 0 0 0 1e+20 5e+21 
475 0 0 0 0 1e+20 5e+21 
476 0 0 0 0 1e+20 5e+21 
477 0 0 0 0 1e+20 5e+21 
478 0 0 0 0 1e+20 5e+21 
479 0 0 0 0 1e+20 5e+21 
480 0 0 0 0 1e+20 5e+21 
481 0 0 0 0 1e+20 5e+21 
482 0 0 0 0 1e+20 5e+21 
483 0 0 0 0 1e+20 5e+21 
484 0 0 0 0 1e+20 5e+21 
485 0 0 0 0 1e+20 5e+21 
486 0 0 0 0 1e+20 5e+21 
487 0 0 0 0 1e+20 5e+21 
488 0 0 0 0 1e+20 5e+21 
489 0 0 0 0 1e+20 5e+21 
490 0 0 0 0 1e+20 5e+21 
491 0 0 0 0 1e+20 5e+21 
492 0 0 0 0 1e+20 5e+21 
493 2.61e+20 0 370.349 1.33455 0.00580653 0.290327 
494 2.573e+20 0 281.317 0.999353 0.00540878 0.270439 
495 4.958e+20 0 81.3876 0.557119 0.00191097 0.0955486 
496 7.259e+20 0 325.557 3.26278 0.00200598 0.100299 
497 1.0182e+21 0 137.969 1.93953 0.00109594 0.054797 
498 1.9769e+21 0 248.346 6.77837 0.000677285 0.0338642 
499 6.351e+20 0 183.464 1.6087 0.00191932 0.0959658 
500 1.9588e+21 0 262.022 7.08615 0.000694996 0.0347498 
501 2.6398e+21 0 234.595 8.55014 0.000498329 0.0249164 
502 1.3684e+21 0 159.642 3.01608 0.000853199 0.0426599 
503 1.7146e+21 0 334.246 7.91246 0.00085622 0.042811 
504 1.5867e+21 0 345.991 7.57955 0.000935198 0.0467599 
505 1.389e+21 0 269.27 5.16385 0.000988426 0.0494213 
506 1.8219e+21 0 324.87 8.17178 0.000798718 0.0399359 
507 2.8285e+21 0 279.659 10.9212 0.000491119 0.024556 
508 2.0129e+21 0 208.086 5.78293 0.000629682 0.0314841 
509 1.4952e+21 0 256.131 5.28743 0.000904091 0.0452045 
510 8.915e+20 0 325.341 4.00445 0.00163302 0.081651 
511 1.4057e+21 0 145.827 2.83017 0.000807579 0.0403789 
512 1.8832e+21 0 714.139 18.5679 0.000986425 0.0493213 
513 3.9013e+21 0 1466.5 78.9903 0.000595149 0.0297575 
514 3.62e+21 0 1522.43 76.0902 0.000648882 0.0324441 
515 3.5209e+21 0 1277.83 62.1169 0.000631889 0.0315945 
516 3.781e+20 0 218.65 1.1414 0.00340411 0.170205 
517 1.2942e+21 0 1131.36 20.2156 0.0016554 0.0827701 
518 8.25e+20 0 480.468 5.47269 0.00199136 0.099568 
519 9.067e+20 0 258.425 3.23506 0.00149502 0.0747512 
520 2.043e+20 0 30.3219 0.085528 0.00341479 0.17074 
521 7.864e+20 0 192.167 2.08644 0.00157248 0.0786239 
522 5.237e+20 0 819.834 5.92777 0.0037022 0.18511 
523 1.1499e+21 0 991.098 15.7347 0.00178823 0.0894116 
524 1.4372e+21 0 191.903 3.80787 0.000860055 0.0430027 
525 0 0 0 0 1e+20 5e+21 
526 5.357e+20 0 144.258 1.06695 0.00211203 0.105601 
527 1.0812e+21 0 763.347 11.3949 0.00175398 0.0876992 
528 1.6107e+21 0 1067.28 23.7344 0.00130629 0.0653146 
529 1.6291e+21 0 807.369 18.1595 0.00118449 0.0592247 
530 9.121e+20 0 534.593 6.73208 0.0018618 0.09309 
531 6.269e+20 0 244.688 2.11785 0.00212598 0.106299 
532 1.052e+20 0 -3.04095e-12 -4.4168e-15 -nan -nan 
533 5e+20 0 278.359 1.92158 0.00277425 0.138713 
534 8.63e+19 0 -2.65519e-10 -3.16366e-13 -nan -nan 
535 6.586e+20 0 1170.67 10.6449 0.00328762 0.164381 
536 1.898e+20 0 1431.25 3.75054 0.0121412 0.607062 
537 2.3338e+21 0 1460.51 47.0601 0.000993622 0.0496811 
538 9.645e+20 0 538.279 7.16792 0.0017644 0.0882202 
539 1.3051e+21 0 1490.03 26.8487 0.00178787 0.0893933 
540 1.7632e+21 0 958.838 23.3416 0.00115432 0.0577162 
541 6.64e+20 0 706.698 6.47866 0.00278858 0.139429 
542 0 0 0 0 1e+20 5e+21 
543 5.187e+20 0 111.14 0.795918 0.00201183 0.100591 
544 7.726e+20 0 328.877 3.5081 0.00189066 0.0945331 
545 2.842e+20 0 129.778 0.509224 0.00385262 0.192631 
546 1.0845e+21 0 325.751 4.87752 0.00134293 0.0671465 
547 2.4373e+21 0 212.848 7.16246 0.000523698 0.0261849 
548 1.7959e+21 0 300.677 7.45531 0.000791074 0.0395537 
549 9.635e+20 0 164.587 2.18943 0.00122326 0.0611631 
550 1.1106e+21 0 153.581 2.35493 0.00103871 0.0519355 
551 8.399e+20 0 131.056 1.51974 0.00130759 0.0653796 
552 1.3781e+21 0 190.813 3.63054 0.000895355 0.0447678 
553 2.0018e+21 0 236.806 6.54479 0.000659066 0.0329533 
554 1.7563e+21 0 145.806 3.53554 0.000646337 0.0323169 
555 1.4683e+21 0 104.707 2.12263 0.000697695 0.0348848 
556 2.0281e+21 0 317.887 8.90114 0.000712694 0.0356347 
557 2.2444e+21 0 392.038 12.1482 0.000687257 0.0343629 
558 1.2278e+21 0 443.6 7.51972 0.00130535 0.0652676 
559 1.8905e+21 0 185.043 4.82983 0.000646496 0.0323248 
560 1.1935e+21 0 115.117 1.8969 0.000883931 0.0441965 
561 1.4909e+21 0 157.456 3.24109 0.000779756 0.0389878 
562 1.1743e+21 0 321.13 5.20646 0.00123475 0.0617376 
563 1.5364e+21 0 3432.56 72.8125 0.0019671 0.0983548 
564 2.0229e+21 0 1495.45 41.7668 0.00115476 0.0577382 
565 1.5315e+21 0 1324.46 28.0051 0.00146894 0.0734468 
566 1.1686e+21 0 734.407 11.8491 0.00160348 0.0801738 
567 2.92e+20 0 1276.63 5.14673 0.00761703 0.380851 
568 7.541e+20 0 1318.25 13.7249 0.00297892 0.148946 
569 1.1895e+21 0 1016.05 16.6865 0.00174208 0.087104 
570 7.217e+20 0 210.354 2.09599 0.00176216 0.0881081 
571 9.035e+20 0 690.316 8.61111 0.00203453 0.101727 
572 7.655e+20 0 590.462 6.24052 0.00228777 0.114389 
573 6.974e+20 0 1024.9 9.86841 0.00297932 0.148966 
574 7.826e+20 0 342.253 3.69803 0.00188971 0.0944857 
575 2.991e+20 0 1.81478e-10 7.49418e-13 7.7394e-07 3.8697e-05 
576 7.893e+20 0 174.383 1.90033 0.00152024 0.076012 
577 7.22e+20 0 607.179 6.05253 0.00244669 0.122335 
578 1.7699e+21 0 2142.41 52.3521 0.00147543 0.0737716 
579 1.9384e+21 0 669.738 17.9239 0.000939453 0.0469727 
580 4.478e+20 0 326.5 2.0186 0.00325468 0.162734 
581 5.442e+20 0 667.693 5.0167 0.00334309 0.167155 
582 4.505e+20 0 728.718 4.5325 0.00414941 0.207471 
583 1.614e+20 0 1.18888e-09 2.64926e-12 2.56849e-06 0.000128424 
584 7.437e+20 0 2672.85 27.4445 0.00376056 0.188028 
585 7.75e+20 0 1209.22 12.9387 0.00282204 0.141102 
586 6.009e+20 0 1024.74 8.50156 0.00345761 0.17288 
587 6.564e+20 0 1506.72 13.6548 0.00356705 0.178353 
588 1.3137e+21 0 294.731 5.34571 0.00107477 0.0537383 
589 2.88e+20 0 1864.13 7.4123 0.00868447 0.434224 
590 1.6006e+21 0 934.16 20.6437 0.00126135 0.0630675 
591 5.282e+20 0 718.8 5.24191 0.00352402 0.176201 
592 5.95e+19 0 138.885 0.114092 0.0187929 0.939646 
593 1.0348e+21 0 206.609 2.95181 0.00122216 0.0611079 
594 8.669e+20 0 431.207 5.16105 0.00183262 0.0916309 
595 1.4065e+21 0 311.426 6.04752 0.00102115 0.0510573 
596 5.911e+20 0 175.631 1.43333 0.00203448 0.101724 
597 5.334e+20 0 243.831 1.79566 0.00249593 0.124796 
598 1.9049e+21 0 366.333 9.63456 0.000792898 0.0396449 
599 2.8442e+21 0 225.817 8.86746 0.00045708 0.022854 
600 1.8561e+21 0 211.633 5.42334 0.000686463 0.0343232 
601 8.134e+20 0 253.676 2.84883 0.00165695 0.0828477 
602 1.7045e+21 0 250.926 5.90507 0.000788043 0.0394022 
603 2.4387e+21 0 190.48 6.41344 0.000505688 0.0252844 
604 8.503e+20 0 167.483 1.9662 0.00139363 0.0696814 
605 1.6675e+21 0 192.541 4.43275 0.000742035 0.0371018 
606 1.7445e+21 0 257.398 6.19954 0.000776077 0.0388038 
607 1.4231e+21 0 180.299 3.54251 0.000851943 0.0425971 
608 1.9507e+21 0 175.474 4.72592 0.000616316 0.0308158 
609 1.1005e+21 0 94.3993 1.43431 0.000901443 0.0450722 
610 8.429e+20 0 114.7 1.33482 0.00125019 0.0625096 
611 1.1829e+21 0 303.385 4.95479 0.00120436 0.0602182 
612 1.578e+21 0 536.257 11.6832 0.00107718 0.0538588 
613 1.9362e+21 0 1552.13 41.4916 0.00122046 0.0610232 
614 2.6168e+21 0 700.411 25.305 0.00070563 0.0352815 
615 1.9025e+21 0 1127.4 29.6132 0.00112488 0.0562442 
616 2.7728e+21 0 1166.91 44.6725 0.000780102 0.0390051 
617 8.227e+20 0 1587.15 18.0278 0.00289227 0.144613 
618 1.0267e+21 0 695.825 9.8634 0.00179481 0.0897407 
619 2.7669e+21 0 1149.32 43.9055 0.000778093 0.0389047 
620 1.9895e+21 0 746.603 20.5077 0.000946677 0.0473339 
621 1.6036e+21 0 582.028 12.8861 0.00108724 0.0543619 
622 1.3058e+21 0 403.117 7.2676 0.0011915 0.0595751 
623 9.231e+20 0 444.824 5.66918 0.00173771 0.0868856 
624 1.557e+21 0 761.232 16.364 0.00121694 0.0608471 
625 1.2259e+21 0 489.039 8.27718 0.0013475 0.0673751 
626 1.0116e+21 0 254.576 3.55557 0.00133378 0.0666888 
627 7.495e+20 0 165.933 1.71707 0.00157651 0.0788253 
628 1.0595e+21 0 620.956 9.08333 0.00167894 0.0839471 
629 7.158e+20 0 630.492 6.23095 0.00249688 0.124844 
630 4.378e+20 0 169.075 1.02197 0.00271467 0.135734 
631 1.1789e+21 0 522.098 8.49792 0.00142993 0.0714964 
632 6.619e+20 0 894.895 8.17801 0.00300985 0.150493 
633 5.692e+20 0 180.351 1.41732 0.0021302 0.10651 
634 1.9002e+21 0 526.048 13.8009 0.000889214 0.0444607 
635 1.3654e+21 0 1046.77 19.7331 0.00153173 0.0765865 
636 1.154e+21 0 863.442 13.7569 0.00170732 0.0853659 
637 9.968e+20 0 761.986 10.4867 0.00190144 0.0950722 
638 4.942e+20 0 712.687 4.86278 0.0037565 0.187825 
639 1.5313e+21 0 602.421 12.7363 0.00115079 0.0575396 
640 1.1634e+21 0 243.906 3.91774 0.00114445 0.0572227 
641 1.7248e+21 0 866.353 20.6308 0.0011435 0.0571748 
642 1.2698e+21 0 217.742 3.81734 0.00101231 0.0506157 
643 1.5429e+21 0 228.751 4.87286 0.000845966 0.0422983 
644 1.5237e+21 0 360.333 7.58031 0.000986204 0.0493102 
645 9.99e+20 0 189.365 2.61185 0.00123221 0.0616106 
646 1.0952e+21 0 179.57 2.71526 0.00110562 0.0552812 
647 1.021e+21 0 193.197 2.72339 0.00121317 0.0606586 
648 1.3638e+21 0 214.318 4.03546 0.00093792 0.046896 
649 1.939e+20 0 130.408 0.349113 0.00565529 0.282764 
650 1.6975e+21 0 250.084 5.8611 0.000790469 0.0395234 
651 1.2895e+21 0 388.492 6.9165 0.00119282 0.059641 
652 1.7262e+21 0 207.974 4.95661 0.000734142 0.0367071 
653 1.7327e+21 0 128.936 3.08447 0.000630639 0.0315319 
654 1.2577e+21 0 182.844 3.17497 0.000968179 0.0484089 
655 1.1916e+21 0 310.109 5.10186 0.00120372 0.0601862 
656 1.0609e+21 0 243.528 3.56702 0.00125442 0.0627211 
657 2.6987e+21 0 313.071 11.6649 0.000533068 0.0266534 
658 2.4524e+21 0 295.57 10.0077 0.000576237 0.0288119 
659 1.9381e+21 0 422.616 11.3085 0.00081462 0.040731 
660 1.9182e+21 0 462.418 12.2465 0.00084636 0.042318 
661 9.979e+20 0 402.618 5.54707 0.00155854 0.077927 
662 1.4732e+21 0 303.736 6.17791 0.000967387 0.0483694 
663 1.0681e+21 0 1037.74 15.3032 0.00195282 0.0976412 
664 1.7734e+21 0 1278.9 31.3132 0.00125488 0.0627438 
665 2.1207e+21 0 1422.83 41.6597 0.00108464 0.0542321 
666 2.2162e+21 0 810.48 24.799 0.000871744 0.0435872 
667 2.4616e+21 0 601.233 20.4335 0.000715441 0.035772 
668 1.5619e+21 0 379.272 8.17875 0.000977484 0.0488742 
669 1.3951e+21 0 499.651 9.624 0.00119198 0.0595991 
670 2.7499e+21 0 204.245 7.75447 0.000458267 0.0229133 
671 8.166e+20 0 93.6708 1.05608 0.00121193 0.0605963 
672 1.5392e+21 0 778.993 16.5543 0.00123985 0.0619924 
673 1.7846e+21 0 723.468 17.8256 0.00104512 0.0522561 
674 1.5753e+21 0 653.434 14.2118 0.00114719 0.0573597 
675 1.2383e+21 0 422.73 7.22724 0.00127509 0.0637546 
676 1.0195e+21 0 555.932 7.82514 0.001686 0.0843 
677 1.0592e+21 0 411.643 6.0198 0.00147847 0.0739233 
678 1.3486e+21 0 803.986 14.9698 0.001429 0.07145 
679 5.302e+20 0 566.195 4.14466 0.00326038 0.163019 
680 6.336e+20 0 258.32 2.25973 0.00213915 0.106958 
681 1.2391e+21 0 590.292 10.0985 0.00141323 0.0706614 
682 2.5348e+21 0 748.049 26.1792 0.000743469 0.0371734 
683 1.3168e+21 0 670.712 12.1938 0.00138355 0.0691774 
684 9.869e+20 0 679.711 9.26148 0.00185368 0.0926841 
685 2.0328e+21 0 798.976 22.4239 0.000946191 0.0473095 
686 1.7594e+21 0 442.034 10.7375 0.000909944 0.0454972 
687 2.2953e+21 0 324.745 10.2912 0.000633909 0.0316954 
688 1.4004e+21 0 384.097 7.42636 0.00109449 0.0547246 
689 8.97e+20 0 537.988 6.66267 0.00189686 0.094843 
690 2.2394e+21 0 337.116 10.423 0.000657306 0.0328653 
691 2.2155e+21 0 382.147 11.6892 0.000690729 0.0345364 
692 1.1347e+21 0 429.018 6.72109 0.00139789 0.0698947 
693 1.6192e+21 0 313.198 7.00168 0.000888569 0.0444285 
694 7.85e+20 0 257.456 2.79033 0.00172479 0.0862395 
695 6.304e+20 0 357.676 3.11307 0.00237823 0.118911 
696 7.779e+20 0 81.4541 0.874822 0.00121828 0.060914 
697 1.148e+21 0 286.817 4.54601 0.00121956 0.0609781 
698 1.8001e+21 0 304.694 7.57257 0.000792481 0.0396241 
699 1.4318e+21 0 297.612 5.88323 0.000989093 0.0494547 
700 1.6712e+21 0 412.336 9.51401 0.000937535 0.0468768 
701 7.813e+20 0 103.968 1.12151 0.00130831 0.0654153 
702 1.1673e+21 0 238.088 3.83711 0.00113212 0.0566062 
703 1.2204e+21 0 188.139 3.17004 0.00100664 0.050332 
704 1.0985e+21 0 215.135 3.26283 0.00116581 0.0582906 
705 9.981e+20 0 160.717 2.21473 0.00117218 0.0586089 
706 4.586e+20 0 94.6751 0.59945 0.00216515 0.108257 
707 6.417e+20 0 144.487 1.2801 0.00176402 0.0882009 
708 1.1439e+21 0 177.394 2.80163 0.00105456 0.052728 
709 2.2133e+21 0 290.364 8.87291 0.00063498 0.031749 
710 1.8073e+21 0 246.753 6.1571 0.000739366 0.0369683 
711 2.4123e+21 0 224.412 7.47414 0.000537875 0.0268937 
712 2.0798e+21 0 289.838 8.32262 0.000675359 0.0337679 