ITEM: TIMESTEP
30000
ITEM: NUMBER OF CELLS
2500
ITEM: BOX BOUNDS oo rr pp
0 1.5
0 0.5
-0.5 0.5
ITEM: CELLS id f_1[1] f_1[6] f_5[1] f_5[2] c_3[1] c_3[2] 
1 8.154e+20 0 137.296 1.54566 0.00136644 0.0683222 
2 2.4599e+21 0 334.25 11.352 0.000596805 0.0298403 
3 3.0863e+21 0 326.871 13.9283 0.000472397 0.0236198 
4 1.9372e+21 0 313.98 8.3977 0.000743282 0.0371641 
5 9.693e+20 0 204.398 2.73538 0.0013004 0.0650201 
6 1.4272e+21 0 203.701 4.01384 0.000882248 0.0441124 
7 2.3902e+21 0 175.09 5.77801 0.000502649 0.0251324 
8 1.6706e+21 0 160.284 3.69698 0.000699732 0.0349866 
9 1.4202e+21 0 209.356 4.10505 0.000894155 0.0447078 
10 2.5199e+21 0 474.643 16.5133 0.000649499 0.032475 
11 2.282e+21 0 613.579 19.3317 0.000776626 0.0388313 
12 4.1768e+21 0 1926.96 111.122 0.000605 0.03025 
13 5.4635e+21 0 2965.54 223.696 0.000528651 0.0264326 
14 1.3362e+22 0 894.496 165.019 0.000149075 0.00745377 
15 0 0 0 0 1e+20 5e+21 
16 0 0 0 0 1e+20 5e+21 
17 0 0 0 0 1e+20 5e+21 
18 0 0 0 0 1e+20 5e+21 
19 0 0 0 0 1e+20 5e+21 
20 0 0 0 0 1e+20 5e+21 
21 0 0 0 0 1e+20 5e+21 
22 0 0 0 0 1e+20 5e+21 
23 0 0 0 0 1e+20 5e+21 
24 0 0 0 0 1e+20 5e+21 
25 0 0 0 0 1e+20 5e+21 
26 0 0 0 0 1e+20 5e+21 
27 0 0 0 0 1e+20 5e+21 
28 0 0 0 0 1e+20 5e+21 
29 0 0 0 0 1e+20 5e+21 
30 0 0 0 0 1e+20 5e+21 
31 0 0 0 0 1e+20 5e+21 
32 0 0 0 0 1e+20 5e+21 
33 0 0 0 0 1e+20 5e+21 
34 0 0 0 0 1e+20 5e+21 
35 0 0 0 0 1e+20 5e+21 
36 0 0 0 0 1e+20 5e+21 
37 0 0 0 0 1e+20 5e+21 
38 0 0 0 0 1e+20 5e+21 
39 0 0 0 0 1e+20 5e+21 
40 0 0 0 0 1e+20 5e+21 
41 0 0 0 0 1e+20 5e+21 
42 0 0 0 0 1e+20 5e+21 
43 0 0 0 0 1e+20 5e+21 
44 0 0 0 0 1e+20 5e+21 
45 0 0 0 0 1e+20 5e+21 
46 0 0 0 0 1e+20 5e+21 
47 3.617e+20 0 208.734 1.04238 0.00350763 0.175381 
48 1.6663e+21 0 278.493 6.40694 0.000832582 0.0416291 
49 5.313e+20 0 134.754 0.988471 0.002085 0.10425 
50 4.236e+20 0 60.9856 0.35667 0.00204528 0.102264 
51 1.8033e+21 0 183.897 4.57854 0.000676454 0.0338227 
52 2.2715e+21 0 310.389 9.73426 0.000631635 0.0315818 
53 1.349e+21 0 269.188 5.01361 0.00101764 0.0508819 
54 1.7903e+21 0 248.254 6.13628 0.000747791 0.0373895 
55 2.1028e+21 0 288.659 8.38042 0.000667128 0.0333564 
56 2.4134e+21 0 428.625 14.282 0.000657056 0.0328528 
57 1.2148e+21 0 456.92 7.66352 0.00133148 0.0665739 
58 3.049e+20 0 -1.07284e-09 -4.51623e-12 -nan -nan 
59 9.759e+20 0 244.583 3.29545 0.00136551 0.0682755 
60 1.3748e+21 0 532.596 10.1093 0.00123376 0.0616882 
61 1.1974e+21 0 1141.78 18.8758 0.00179432 0.0897159 
62 2.7842e+21 0 2246.85 86.3689 0.000951865 0.0475933 
63 7.1537e+21 0 2606.57 257.444 0.000387917 0.0193958 
64 1.31907e+22 0 1520.73 276.951 0.000178015 0.00890074 
65 0 0 0 0 1e+20 5e+21 
66 0 0 0 0 1e+20 5e+21 
67 0 0 0 0 1e+20 5e+21 
68 0 0 0 0 1e+20 5e+21 
69 0 0 0 0 1e+20 5e+21 
70 0 0 0 0 1e+20 5e+21 
71 0 0 0 0 1e+20 5e+21 
72 0 0 0 0 1e+20 5e+21 
73 0 0 0 0 1e+20 5e+21 
74 0 0 0 0 1e+20 5e+21 
75 0 0 0 0 1e+20 5e+21 
76 0 0 0 0 1e+20 5e+21 
77 0 0 0 0 1e+20 5e+21 
78 0 0 0 0 1e+20 5e+21 
79 0 0 0 0 1e+20 5e+21 
80 0 0 0 0 1e+20 5e+21 
81 0 0 0 0 1e+20 5e+21 
82 0 0 0 0 1e+20 5e+21 
83 0 0 0 0 1e+20 5e+21 
84 0 0 0 0 1e+20 5e+21 
85 0 0 0 0 1e+20 5e+21 
86 0 0 0 0 1e+20 5e+21 
87 0 0 0 0 1e+20 5e+21 
88 0 0 0 0 1e+20 5e+21 
89 0 0 0 0 1e+20 5e+21 
90 0 0 0 0 1e+20 5e+21 
91 0 0 0 0 1e+20 5e+21 
92 0 0 0 0 1e+20 5e+21 
93 0 0 0 0 1e+20 5e+21 
94 0 0 0 0 1e+20 5e+21 
95 0 0 0 0 1e+20 5e+21 
96 0 0 0 0 1e+20 5e+21 
97 7.227e+20 0 89.045 0.888487 0.00134806 0.067403 
98 9.276e+20 0 165.926 2.12499 0.0012738 0.0636899 
99 9.431e+20 0 346.706 4.51442 0.00157441 0.0787206 
100 6.876e+20 0 94.1439 0.89374 0.00144154 0.0720772 
101 1.686e+21 0 309.287 7.19951 0.000850047 0.0425023 
102 1.7215e+21 0 395.613 9.40288 0.000898535 0.0449267 
103 1.6209e+21 0 266.494 5.96385 0.000844296 0.0422148 
104 8.673e+20 0 217.755 2.60748 0.00148214 0.074107 
105 1.3768e+21 0 254.95 4.84629 0.000980434 0.0490217 
106 9.524e+20 0 318.959 4.19409 0.00151924 0.075962 
107 1.2205e+21 0 304.647 5.13355 0.00116877 0.0584383 
108 1.5007e+21 0 224.099 4.64319 0.000864232 0.0432116 
109 1.5194e+21 0 367.955 7.71881 0.000995434 0.0497717 
110 1.7984e+21 0 658.876 16.3596 0.00100747 0.0503734 
111 2.5255e+21 0 1563.96 54.5325 0.000937887 0.0468943 
112 3.1446e+21 0 2870.86 124.641 0.000909298 0.0454649 
113 6.9703e+21 0 2763.09 265.907 0.000405386 0.0202693 
114 1.48857e+22 0 1022.89 210.224 0.000139497 0.00697486 
115 0 0 0 0 1e+20 5e+21 
116 0 0 0 0 1e+20 5e+21 
117 0 0 0 0 1e+20 5e+21 
118 0 0 0 0 1e+20 5e+21 
119 0 0 0 0 1e+20 5e+21 
120 0 0 0 0 1e+20 5e+21 
121 0 0 0 0 1e+20 5e+21 
122 0 0 0 0 1e+20 5e+21 
123 0 0 0 0 1e+20 5e+21 
124 0 0 0 0 1e+20 5e+21 
125 0 0 0 0 1e+20 5e+21 
126 0 0 0 0 1e+20 5e+21 
127 0 0 0 0 1e+20 5e+21 
128 0 0 0 0 1e+20 5e+21 
129 0 0 0 0 1e+20 5e+21 
130 0 0 0 0 1e+20 5e+21 
131 0 0 0 0 1e+20 5e+21 
132 0 0 0 0 1e+20 5e+21 
133 0 0 0 0 1e+20 5e+21 
134 0 0 0 0 1e+20 5e+21 
135 0 0 0 0 1e+20 5e+21 
136 0 0 0 0 1e+20 5e+21 
137 0 0 0 0 1e+20 5e+21 
138 0 0 0 0 1e+20 5e+21 
139 0 0 0 0 1e+20 5e+21 
140 0 0 0 0 1e+20 5e+21 
141 0 0 0 0 1e+20 5e+21 
142 0 0 0 0 1e+20 5e+21 
143 0 0 0 0 1e+20 5e+21 
144 1.684e+20 0 8.6237e-11 2.00502e-13 1.09147e-06 5.45734e-05 
145 8.35e+19 0 0 0 0.0165153 0.825764 
146 0 0 0 0 1e+20 5e+21 
147 0 0 0 0 1e+20 5e+21 
148 2.422e+20 0 16.9351 0.0566299 0.00240457 0.120229 
149 1.0975e+21 0 155.413 2.35491 0.00105498 0.052749 
150 1.4275e+21 0 195.239 3.84791 0.000870537 0.0435269 
151 1.4135e+21 0 231.619 4.52015 0.000926983 0.0463492 
152 1.8696e+21 0 176.997 4.56875 0.000644776 0.0322388 
153 1.9989e+21 0 400.449 11.0515 0.000776759 0.038838 
154 6.761e+20 0 371.21 3.46509 0.00224316 0.112158 
155 1.0255e+21 0 146.546 2.07487 0.00110867 0.0554337 
156 1.1687e+21 0 134.507 2.17036 0.000947319 0.047366 
157 9.245e+20 0 57.5165 0.734146 0.000920273 0.0460137 
158 2.347e+21 0 275.006 8.91125 0.000588804 0.0294402 
159 2.0484e+21 0 301.976 8.54024 0.000694488 0.0347244 
160 1.0542e+21 0 3957.99 57.6078 0.00299628 0.149814 
161 1.7866e+21 0 3057.02 75.4066 0.00163194 0.0815968 
162 3.1197e+21 0 3619.35 155.893 0.000984806 0.0492403 
163 4.6418e+21 0 2275.63 145.838 0.000573196 0.0286598 
164 1.18884e+22 0 757.416 124.32 0.000159132 0.00795661 
165 0 0 0 0 1e+20 5e+21 
166 0 0 0 0 1e+20 5e+21 
167 0 0 0 0 1e+20 5e+21 
168 0 0 0 0 1e+20 5e+21 
169 0 0 0 0 1e+20 5e+21 
170 0 0 0 0 1e+20 5e+21 
171 0 0 0 0 1e+20 5e+21 
172 0 0 0 0 1e+20 5e+21 
173 0 0 0 0 1e+20 5e+21 
174 0 0 0 0 1e+20 5e+21 
175 0 0 0 0 1e+20 5e+21 
176 0 0 0 0 1e+20 5e+21 
177 0 0 0 0 1e+20 5e+21 
178 0 0 0 0 1e+20 5e+21 
179 0 0 0 0 1e+20 5e+21 
180 0 0 0 0 1e+20 5e+21 
181 0 0 0 0 1e+20 5e+21 
182 0 0 0 0 1e+20 5e+21 
183 0 0 0 0 1e+20 5e+21 
184 0 0 0 0 1e+20 5e+21 
185 0 0 0 0 1e+20 5e+21 
186 0 0 0 0 1e+20 5e+21 
187 0 0 0 0 1e+20 5e+21 
188 0 0 0 0 1e+20 5e+21 
189 0 0 0 0 1e+20 5e+21 
190 0 0 0 0 1e+20 5e+21 
191 0 0 0 0 1e+20 5e+21 
192 0 0 0 0 1e+20 5e+21 
193 0 0 0 0 1e+20 5e+21 
194 2.481e+20 0 4.31809e-11 1.47911e-13 5.97863e-07 2.98932e-05 
195 0 0 0 0 1e+20 5e+21 
196 0 0 0 0 1e+20 5e+21 
197 0 0 0 0 1e+20 5e+21 
198 3.922e+20 0 43.114 0.233458 0.00198386 0.0991932 
199 1.1533e+21 0 179.053 2.85106 0.00104899 0.0524493 
200 1.2447e+21 0 133.856 2.30031 0.00088814 0.044407 
201 9.121e+20 0 388.229 4.88893 0.00168602 0.084301 
202 1.1892e+21 0 297.811 4.88966 0.00119112 0.0595559 
203 9.986e+20 0 218.937 3.01852 0.00128942 0.0644712 
204 1.1986e+21 0 122.071 2.02008 0.000896321 0.044816 
205 1.1542e+21 0 152.37 2.42809 0.000997025 0.0498512 
206 1.9801e+21 0 216.406 5.91616 0.000647939 0.032397 
207 1.3282e+21 0 233.721 4.28591 0.000989283 0.0494642 
208 4.374e+20 0 339.575 2.05068 0.00337287 0.168643 
209 1.0693e+21 0 201.244 2.97102 0.00117312 0.058656 
210 1.7448e+21 0 568.934 13.7054 0.000992228 0.0496114 
211 1.176e+21 0 738.165 11.9852 0.00159591 0.0797955 
212 3.4017e+21 0 4179.18 196.278 0.000944344 0.0472172 
213 5.1822e+21 0 2889.56 206.743 0.000552881 0.0276441 
214 1.67343e+22 0 851.893 196.823 0.000117246 0.00586232 
215 0 0 0 0 1e+20 5e+21 
216 0 0 0 0 1e+20 5e+21 
217 0 0 0 0 1e+20 5e+21 
218 0 0 0 0 1e+20 5e+21 
219 0 0 0 0 1e+20 5e+21 
220 0 0 0 0 1e+20 5e+21 
221 0 0 0 0 1e+20 5e+21 
222 0 0 0 0 1e+20 5e+21 
223 0 0 0 0 1e+20 5e+21 
224 0 0 0 0 1e+20 5e+21 
225 0 0 0 0 1e+20 5e+21 
226 0 0 0 0 1e+20 5e+21 
227 0 0 0 0 1e+20 5e+21 
228 0 0 0 0 1e+20 5e+21 
229 0 0 0 0 1e+20 5e+21 
230 0 0 0 0 1e+20 5e+21 
231 0 0 0 0 1e+20 5e+21 
232 0 0 0 0 1e+20 5e+21 
233 0 0 0 0 1e+20 5e+21 
234 0 0 0 0 1e+20 5e+21 
235 0 0 0 0 1e+20 5e+21 
236 0 0 0 0 1e+20 5e+21 
237 0 0 0 0 1e+20 5e+21 
238 0 0 0 0 1e+20 5e+21 
239 0 0 0 0 1e+20 5e+21 
240 0 0 0 0 1e+20 5e+21 
241 0 0 0 0 1e+20 5e+21 
242 0 0 0 0 1e+20 5e+21 
243 0 0 0 0 1e+20 5e+21 
244 0 0 0 0 1e+20 5e+21 
245 3.6e+19 0 -1.44661e-11 -7.19014e-15 -nan -nan 
246 0 0 0 0 1e+20 5e+21 
247 0 0 0 0 1e+20 5e+21 
248 0 0 0 0 1e+20 5e+21 
249 7.209e+20 0 89.9231 0.895013 0.00135554 0.0677771 
250 1.3852e+21 0 170.931 3.26901 0.000860895 0.0430447 
251 2.7708e+21 0 180.349 6.89924 0.000437601 0.02188 
252 1.7478e+21 0 156.843 3.78478 0.00066434 0.033217 
253 1.4392e+21 0 207.067 4.11449 0.000879349 0.0439675 
254 2.1534e+21 0 212.381 6.31428 0.000592338 0.0296169 
255 2.1387e+21 0 190.682 5.63043 0.000576811 0.0288406 
256 2.2059e+21 0 233.421 7.109 0.000595423 0.0297711 
257 9.548e+20 0 135.615 1.78774 0.0011625 0.0581248 
258 1.0994e+21 0 124.764 1.89377 0.00098383 0.0491915 
259 1.097e+21 0 63.2601 0.95812 0.000798788 0.0399394 
260 7.808e+20 0 106.534 1.14845 0.00131908 0.0659539 
261 1.1033e+21 0 805.632 12.272 0.00174782 0.087391 
262 3.0242e+21 0 2975.94 124.256 0.000956095 0.0478048 
263 4.2651e+21 0 2556.83 150.562 0.000646765 0.0323382 
264 2.6034e+22 0 1275.4 458.426 8.54077e-05 0.00427039 
265 0 0 0 0 1e+20 5e+21 
266 0 0 0 0 1e+20 5e+21 
267 0 0 0 0 1e+20 5e+21 
268 0 0 0 0 1e+20 5e+21 
269 0 0 0 0 1e+20 5e+21 
270 0 0 0 0 1e+20 5e+21 
271 0 0 0 0 1e+20 5e+21 
272 0 0 0 0 1e+20 5e+21 
273 0 0 0 0 1e+20 5e+21 
274 0 0 0 0 1e+20 5e+21 
275 0 0 0 0 1e+20 5e+21 
276 0 0 0 0 1e+20 5e+21 
277 0 0 0 0 1e+20 5e+21 
278 0 0 0 0 1e+20 5e+21 
279 0 0 0 0 1e+20 5e+21 
280 0 0 0 0 1e+20 5e+21 
281 0 0 0 0 1e+20 5e+21 
282 0 0 0 0 1e+20 5e+21 
283 0 0 0 0 1e+20 5e+21 
284 0 0 0 0 1e+20 5e+21 
285 0 0 0 0 1e+20 5e+21 
286 0 0 0 0 1e+20 5e+21 
287 0 0 0 0 1e+20 5e+21 
288 0 0 0 0 1e+20 5e+21 
289 0 0 0 0 1e+20 5e+21 
290 0 0 0 0 1e+20 5e+21 
291 0 0 0 0 1e+20 5e+21 
292 0 0 0 0 1e+20 5e+21 
293 0 0 0 0 1e+20 5e+21 
294 2.241e+20 0 -4.91333e-11 -1.5202e-13 -nan -nan 
295 3.906e+20 0 47.6061 0.256731 0.00205415 0.102707 
296 0 0 0 0 1e+20 5e+21 
297 0 0 0 0 1e+20 5e+21 
298 4.838e+20 0 141.725 0.946661 0.00232579 0.116289 
299 1.6526e+21 0 122.948 2.80525 0.000651529 0.0325764 
300 1.0128e+21 0 184.061 2.57377 0.00120477 0.0602383 
301 1.153e+21 0 201.229 3.20334 0.00108793 0.0543967 
302 1.732e+21 0 189.768 4.53789 0.000711196 0.0355598 
303 2.127e+21 0 274.779 8.06926 0.000649539 0.032477 
304 9.846e+20 0 173.082 2.35285 0.00121587 0.0607934 
305 1.044e+21 0 249.246 3.59262 0.00128393 0.0641966 
306 1.0824e+21 0 313.1 4.67901 0.00132911 0.0664556 
307 1.8551e+21 0 324.477 8.31065 0.00078413 0.0392065 
308 1.513e+21 0 317.617 6.63476 0.000955079 0.0477539 
309 6.461e+20 0 305.41 2.72437 0.00220954 0.110477 
310 5.664e+20 0 64.2243 0.502234 0.00155436 0.077718 
311 1.3609e+21 0 285.682 5.36776 0.00102751 0.0513755 
312 3.4585e+21 0 3251.44 155.255 0.000859298 0.0429649 
313 7.6607e+21 0 2419.94 255.95 0.000353996 0.0176998 
314 9.8541e+21 0 1042.08 141.776 0.000211944 0.0105972 
315 0 0 0 0 1e+20 5e+21 
316 0 0 0 0 1e+20 5e+21 
317 0 0 0 0 1e+20 5e+21 
318 0 0 0 0 1e+20 5e+21 
319 0 0 0 0 1e+20 5e+21 
320 0 0 0 0 1e+20 5e+21 
321 0 0 0 0 1e+20 5e+21 
322 0 0 0 0 1e+20 5e+21 
323 0 0 0 0 1e+20 5e+21 
324 0 0 0 0 1e+20 5e+21 
325 0 0 0 0 1e+20 5e+21 
326 0 0 0 0 1e+20 5e+21 
327 0 0 0 0 1e+20 5e+21 
328 0 0 0 0 1e+20 5e+21 
329 0 0 0 0 1e+20 5e+21 
330 0 0 0 0 1e+20 5e+21 
331 0 0 0 0 1e+20 5e+21 
332 0 0 0 0 1e+20 5e+21 
333 0 0 0 0 1e+20 5e+21 
334 0 0 0 0 1e+20 5e+21 
335 0 0 0 0 1e+20 5e+21 
336 0 0 0 0 1e+20 5e+21 
337 0 0 0 0 1e+20 5e+21 
338 0 0 0 0 1e+20 5e+21 
339 0 0 0 0 1e+20 5e+21 
340 0 0 0 0 1e+20 5e+21 
341 0 0 0 0 1e+20 5e+21 
342 0 0 0 0 1e+20 5e+21 
343 0 0 0 0 1e+20 5e+21 
344 2.725e+20 0 59.1027 0.22236 0.00314862 0.157431 
345 1.57e+20 0 12.3963 0.0268704 0.00336751 0.168375 
346 0 0 0 0 1e+20 5e+21 
347 0 0 0 0 1e+20 5e+21 
348 5.39e+20 0 149.49 1.11246 0.00212241 0.10612 
349 1.6964e+21 0 218.168 5.10978 0.000758202 0.0379101 
350 9.76e+20 0 139.082 1.87415 0.00114618 0.0573089 
351 1.3533e+21 0 71.7133 1.33991 0.000673178 0.0336589 
352 1.281e+21 0 183.655 3.24814 0.000951875 0.0475937 
353 2.1125e+21 0 272.755 7.95522 0.0006525 0.032625 
354 1.2649e+21 0 324.79 5.67208 0.00115035 0.0575173 
355 9.87e+20 0 230.896 3.14642 0.00132626 0.0663132 
356 1.4617e+21 0 305.558 6.16645 0.000976807 0.0488404 
357 1.0427e+21 0 205.937 2.96468 0.00121168 0.0605838 
358 1.0619e+21 0 168.195 2.46593 0.0011174 0.0558698 
359 6.851e+20 0 246.396 2.33061 0.00194958 0.0974788 
360 1.627e+21 0 230.484 5.1774 0.000804117 0.0402058 
361 1.9552e+21 0 548.897 14.8172 0.000875667 0.0437833 
362 1.6549e+21 0 3404.46 77.7864 0.00182159 0.0910797 
363 5.1359e+21 0 2706.47 191.913 0.000546659 0.027333 
364 1.00308e+22 0 1246.69 172.654 0.000220109 0.0110054 
365 0 0 0 0 1e+20 5e+21 
366 0 0 0 0 1e+20 5e+21 
367 0 0 0 0 1e+20 5e+21 
368 0 0 0 0 1e+20 5e+21 
369 0 0 0 0 1e+20 5e+21 
370 0 0 0 0 1e+20 5e+21 
371 0 0 0 0 1e+20 5e+21 
372 0 0 0 0 1e+20 5e+21 
373 0 0 0 0 1e+20 5e+21 
374 0 0 0 0 1e+20 5e+21 
375 0 0 0 0 1e+20 5e+21 
376 0 0 0 0 1e+20 5e+21 
377 0 0 0 0 1e+20 5e+21 
378 0 0 0 0 1e+20 5e+21 
379 0 0 0 0 1e+20 5e+21 
380 0 0 0 0 1e+20 5e+21 
381 0 0 0 0 1e+20 5e+21 
382 0 0 0 0 1e+20 5e+21 
383 0 0 0 0 1e+20 5e+21 
384 0 0 0 0 1e+20 5e+21 
385 0 0 0 0 1e+20 5e+21 
386 0 0 0 0 1e+20 5e+21 
387 0 0 0 0 1e+20 5e+21 
388 0 0 0 0 1e+20 5e+21 
389 0 0 0 0 1e+20 5e+21 
390 0 0 0 0 1e+20 5e+21 
391 0 0 0 0 1e+20 5e+21 
392 0 0 0 0 1e+20 5e+21 
393 0 0 0 0 1e+20 5e+21 
394 2.822e+20 0 6.83335e-11 2.66241e-13 6.05993e-07 3.02996e-05 
395 5.63e+19 0 3.43575e-12 2.67062e-15 1.20212e-06 6.01058e-05 
396 0 0 0 0 1e+20 5e+21 
397 7.72e+19 0 -2.26661e-10 -2.41589e-13 -nan -nan 
398 6.328e+20 0 193.418 1.68984 0.0019581 0.0979051 
399 2.6856e+21 0 266.816 9.89318 0.000509768 0.0254884 
400 2.0854e+21 0 161.609 4.65305 0.000561983 0.0280991 
401 1.926e+21 0 347.732 9.24664 0.000771645 0.0385823 
402 1.9301e+21 0 164.977 4.39629 0.000611096 0.0305548 
403 1.1445e+21 0 213.84 3.379 0.00111686 0.0558432 
404 1.09e+21 0 254.416 3.82873 0.0012376 0.06188 
405 1.2973e+21 0 370.6 6.63787 0.00116844 0.0584222 
406 1.476e+21 0 276.043 5.62531 0.000937356 0.0468678 
407 2.1025e+21 0 185.367 5.38086 0.000581624 0.0290812 
408 1.4983e+21 0 224.71 4.64841 0.000866348 0.0433174 
409 1.5722e+21 0 176.587 3.8331 0.000766192 0.0383096 
410 1.4944e+21 0 110.786 2.28578 0.000697608 0.0348804 
411 7.679e+20 0 71.9795 0.763127 0.00118773 0.0593866 
412 3.1294e+21 0 2487.63 107.481 0.000874019 0.0437009 
413 5.5892e+21 0 3003.23 231.751 0.000518789 0.0259395 
414 2.08371e+22 0 1623.86 467.162 0.000115006 0.0057503 
415 0 0 0 0 1e+20 5e+21 
416 0 0 0 0 1e+20 5e+21 
417 0 0 0 0 1e+20 5e+21 
418 0 0 0 0 1e+20 5e+21 
419 0 0 0 0 1e+20 5e+21 
420 0 0 0 0 1e+20 5e+21 
421 0 0 0 0 1e+20 5e+21 
422 0 0 0 0 1e+20 5e+21 
423 0 0 0 0 1e+20 5e+21 
424 0 0 0 0 1e+20 5e+21 
425 0 0 0 0 1e+20 5e+21 
426 0 0 0 0 1e+20 5e+21 
427 0 0 0 0 1e+20 5e+21 
428 0 0 0 0 1e+20 5e+21 
429 0 0 0 0 1e+20 5e+21 
430 0 0 0 0 1e+20 5e+21 
431 0 0 0 0 1e+20 5e+21 
432 0 0 0 0 1e+20 5e+21 
433 0 0 0 0 1e+20 5e+21 
434 0 0 0 0 1e+20 5e+21 
435 0 0 0 0 1e+20 5e+21 
436 0 0 0 0 1e+20 5e+21 
437 0 0 0 0 1e+20 5e+21 
438 0 0 0 0 1e+20 5e+21 
439 0 0 0 0 1e+20 5e+21 
440 0 0 0 0 1e+20 5e+21 
441 3.98e+19 0 7.85095e-12 4.31408e-15 2.197e-06 0.00010985 
442 0 0 0 0 1e+20 5e+21 
443 0 0 0 0 1e+20 5e+21 
444 8.13e+19 0 -6.22264e-12 -6.98471e-15 -nan -nan 
445 2.6e+18 0 -7.15357e-12 -2.56791e-16 -nan -nan 
446 3.617e+20 0 57.5109 0.287199 0.00235213 0.117607 
447 6.758e+20 0 353.412 3.29748 0.00221023 0.110511 
448 4.929e+20 0 183.559 1.24916 0.00247343 0.123672 
449 2.0758e+21 0 232.863 6.67375 0.000632272 0.0316136 
450 1.8518e+21 0 238.493 6.09751 0.000714021 0.0357011 
451 1.7819e+21 0 147.57 3.63049 0.000639432 0.0319716 
452 2.417e+21 0 265.594 8.86294 0.000565612 0.0282806 
453 1.4189e+21 0 158.482 3.10467 0.000820975 0.0410488 
454 1.5283e+21 0 247.936 5.23156 0.000875638 0.0437819 
455 1.8196e+21 0 328.851 8.26148 0.000802753 0.0401376 
456 1.2684e+21 0 358.618 6.28017 0.00118295 0.0591477 
457 1.3219e+21 0 397.54 7.25542 0.00117192 0.0585959 
458 1.2029e+21 0 437.257 7.26189 0.00132644 0.0663219 
459 2.6403e+21 0 253.799 9.25182 0.000510537 0.0255268 
460 2.0692e+21 0 311.679 8.90417 0.000694281 0.034714 
461 1.073e+21 0 209.735 3.10709 0.00118415 0.0592074 
462 1.4325e+21 0 1919.46 37.9626 0.00176189 0.0880945 
463 6.0779e+21 0 3092.41 259.498 0.000481423 0.0240711 
464 1.45602e+22 0 1388.25 279.074 0.000156778 0.00783891 
465 0 0 0 0 1e+20 5e+21 
466 0 0 0 0 1e+20 5e+21 
467 0 0 0 0 1e+20 5e+21 
468 0 0 0 0 1e+20 5e+21 
469 0 0 0 0 1e+20 5e+21 
470 0 0 0 0 1e+20 5e+21 
471 0 0 0 0 1e+20 5e+21 
472 0 0 0 0 1e+20 5e+21 
473 0 0 0 0 1e+20 5e+21 
474 0 0 0 0 1e+20 5e+21 
475 0 0 0 0 1e+20 5e+21 
476 0 0 0 0 1e+20 5e+21 
477 0 0 0 0 1e+20 5e+21 
478 0 0 0 0 1e+20 5e+21 
479 0 0 0 0 1e+20 5e+21 
480 0 0 0 0 1e+20 5e+21 
481 0 0 0 0 1e+20 5e+21 
482 0 0 0 0 1e+20 5e+21 
483 0 0 0 0 1e+20 5e+21 
484 0 0 0 0 1e+20 5e+21 
485 0 0 0 0 1e+20 5e+21 
486 0 0 0 0 1e+20 5e+21 
487 0 0 0 0 1e+20 5e+21 
488 0 0 0 0 1e+20 5e+21 
489 0 0 0 0 1e+20 5e+21 
490 0 0 0 0 1e+20 5e+21 
491 3.244e+20 0 -3.01625e-10 -1.35092e-12 -nan -nan 
492 3.815e+20 0 -6.48376e-10 -3.41511e-12 -nan -nan 
493 5.32e+19 0 -1.08519e-10 -7.97078e-14 -nan -nan 
494 1.209e+20 0 166.51 0.277939 0.00978382 0.489191 
495 7.291e+20 0 85.6373 0.862051 0.00132016 0.066008 
496 4.154e+20 0 74.2246 0.425694 0.00221662 0.110831 
497 3.397e+20 0 266.57 1.25023 0.00402897 0.201449 
498 1.6059e+21 0 190.925 4.23317 0.000768488 0.0384244 
499 1.4386e+21 0 212.266 4.21603 0.000886504 0.0443252 
500 8.358e+20 0 121.863 1.40624 0.00128471 0.0642357 
501 2.6013e+21 0 213.647 7.6731 0.000491251 0.0245626 
502 1.6572e+21 0 348.846 7.98165 0.000897697 0.0448848 
503 1.4545e+21 0 135.063 2.71227 0.00076215 0.0381075 
504 1.0785e+21 0 188.54 2.80741 0.00113984 0.0569919 
505 1.453e+21 0 348.736 6.99594 0.00102376 0.0511878 
506 1.3687e+21 0 349.834 6.61078 0.00108787 0.0543935 
507 1.5871e+21 0 285.521 6.25641 0.00088091 0.0440455 
508 1.7995e+21 0 212.184 5.27165 0.000708626 0.0354313 
509 1.4993e+21 0 150.629 3.11804 0.000764807 0.0382403 
510 1.8853e+21 0 626.765 16.3143 0.000946259 0.0473129 
511 1.2034e+21 0 168.969 2.80738 0.000987412 0.0493706 
512 1.3091e+21 0 1895.52 34.2598 0.00192049 0.0960243 
513 3.4434e+21 0 2346.23 111.543 0.000780037 0.0390019 
514 5.4076e+21 0 1645.87 122.881 0.000445006 0.0222503 
515 2.596e+21 0 1557.38 55.819 0.000911225 0.0455613 
516 2.0422e+21 0 1124.83 31.7154 0.00104719 0.0523597 
517 1.242e+21 0 1681.77 28.8384 0.00195054 0.0975268 
518 7.095e+20 0 100.591 0.985364 0.00142603 0.0713016 
519 9.99e+20 0 938.038 12.9381 0.00202354 0.101177 
520 3.188e+20 0 631.647 2.7802 0.00560941 0.28047 
521 9.284e+20 0 162.213 2.07923 0.0012638 0.0631901 
522 7.096e+20 0 1061.59 10.4005 0.0029602 0.14801 
523 5.946e+20 0 1747.8 14.3483 0.00412321 0.206161 
524 1.5775e+21 0 485.966 10.5842 0.00104512 0.052256 
525 0 0 0 0 1e+20 5e+21 
526 7.87e+19 0 1.03986e-12 1.12988e-15 5.93711e-07 2.96856e-05 
527 1.108e+21 0 752.197 11.5068 0.00170377 0.0851885 
528 1.1757e+21 0 364.228 5.91226 0.00128238 0.0641191 
529 1.2889e+21 0 332.023 5.90841 0.00113666 0.0568331 
530 7.779e+20 0 414.195 4.44848 0.00201696 0.100848 
531 1.7996e+21 0 1082.21 26.8889 0.00117422 0.058711 
532 0 0 0 0 1e+20 5e+21 
533 1.28e+19 0 -3.48736e-12 -6.16298e-16 -nan -nan 
534 3e+20 0 1032.47 4.27644 0.00694175 0.347087 
535 7e+20 0 200.13 1.93416 0.00178894 0.0894472 
536 5.563e+20 0 526.915 4.047 0.00303892 0.151946 
537 2.0132e+21 0 1373.83 38.186 0.00113021 0.0565107 
538 1.0742e+21 0 458.619 6.80175 0.00150749 0.0753743 
539 5.029e+20 0 548.791 3.81041 0.00340426 0.170213 
540 1.1308e+21 0 479.98 7.49363 0.00145238 0.0726192 
541 4.276e+20 0 438.571 2.58917 0.00373493 0.186747 
542 1.76e+19 0 -1.01451e-11 -2.46519e-15 -nan -nan 
543 1.987e+20 0 32.8429 0.0900995 0.00359904 0.179952 
544 5.115e+20 0 38.3514 0.270838 0.00146695 0.0733474 
545 2.48e+19 0 5.27979e-11 1.80781e-14 6.36572e-06 0.000318286 
546 5.696e+20 0 198.587 1.56173 0.00219322 0.109661 
547 9.454e+20 0 363.218 4.74096 0.0015934 0.0796699 
548 9.847e+20 0 302.905 4.11807 0.00144607 0.0723035 
549 1.4954e+21 0 327.228 6.75603 0.000975291 0.0487646 
550 6.229e+20 0 280.519 2.41248 0.00223222 0.111611 
551 1.1668e+21 0 162.68 2.62068 0.00100648 0.050324 
552 1.3703e+21 0 199.201 3.7687 0.000912542 0.0456271 
553 6.419e+20 0 291.267 2.58132 0.00219155 0.109577 
554 1.9229e+21 0 193.725 5.1431 0.000644702 0.0322351 
555 1.7843e+21 0 175.279 4.31798 0.00067356 0.033678 
556 1.1717e+21 0 204.872 3.31423 0.00107654 0.0538271 
557 1.7684e+21 0 195.462 4.77229 0.00070297 0.0351485 
558 2.1792e+21 0 346.658 10.4299 0.000681334 0.0340667 
559 2.0465e+21 0 336.614 9.51103 0.000718931 0.0359466 
560 1.7045e+21 0 244.45 5.75267 0.000781681 0.0390841 
561 1.6467e+21 0 275.181 6.25628 0.000839374 0.0419687 
562 1.9133e+21 0 296.412 7.83 0.000739252 0.0369626 
563 3.0526e+21 0 2369.23 99.8527 0.000882564 0.0441282 
564 3.6408e+21 0 1871.94 94.0961 0.000687862 0.0343931 
565 1.7403e+21 0 2173.39 52.2209 0.00150722 0.075361 
566 7.273e+20 0 1132.09 11.3679 0.00294631 0.147315 
567 4.459e+20 0 3027.23 18.6366 0.00651891 0.325945 
568 1.737e+20 0 228.196 0.547257 0.00750868 0.375434 
569 1.0373e+21 0 887.29 12.7073 0.00191551 0.0957754 
570 8.147e+20 0 1326.2 14.9173 0.00276248 0.138124 
571 1.0377e+21 0 763.746 10.9422 0.00182781 0.0913904 
572 2.356e+20 0 86.7342 0.28213 0.00410159 0.205079 
573 2.359e+20 0 1366.33 4.45006 0.00962902 0.481451 
574 8.071e+20 0 1177.34 13.1193 0.00268745 0.134372 
575 1.3387e+21 0 638.278 11.7971 0.00134016 0.0670082 
576 7.345e+20 0 450.427 4.56772 0.0021924 0.10962 
577 1.1325e+21 0 633.802 9.91004 0.00158072 0.0790361 
578 3.975e+20 0 1097.33 6.02221 0.00533894 0.266947 
579 1.2656e+21 0 1186.2 20.727 0.00171783 0.0858915 
580 1.2331e+21 0 1233.3 20.9966 0.00178452 0.0892259 
581 5.272e+20 0 1282.28 9.3334 0.00422461 0.211231 
582 3.805e+20 0 -1.63459e-11 -8.58708e-14 -nan -nan 
583 4.1e+20 0 -3.09202e-11 -1.75029e-13 -nan -nan 
584 1.913e+20 0 1293.84 3.41728 0.011675 0.583749 
585 4.956e+20 0 879.039 6.01482 0.0039976 0.19988 
586 5.76e+20 0 1087.42 8.64777 0.00367408 0.183704 
587 5.685e+20 0 1726.16 13.5486 0.00429588 0.214794 
588 1.322e+20 0 5.89774e-11 1.07647e-13 1.23586e-06 6.1793e-05 
589 1.142e+20 0 9.72625 0.0153354 0.00429423 0.214711 
590 1.5482e+21 0 1210.06 25.8653 0.00141297 0.0706483 
591 1.1678e+21 0 331.291 5.34148 0.00125367 0.0626837 
592 1.859e+20 0 -2.69574e-10 -6.91897e-13 -nan -nan 
593 2.725e+20 0 54.3954 0.20465 0.00306864 0.153432 
594 5.338e+20 0 156.823 1.15577 0.00217514 0.108757 
595 1.1795e+21 0 317.963 5.17795 0.00122554 0.0612769 
596 5.668e+20 0 257.71 2.01672 0.00238951 0.119476 
597 6.691e+20 0 220.04 2.03271 0.0019274 0.0963701 
598 3.42e+20 0 99.8197 0.471331 0.00295134 0.147567 
599 1.6123e+21 0 213.774 4.75866 0.000792736 0.0396368 
600 2.4841e+21 0 328.157 11.2547 0.00058763 0.0293815 
601 1.6889e+21 0 382.172 8.9114 0.000906117 0.0453058 
602 9.325e+20 0 243.645 3.13682 0.00142736 0.0713681 
603 9.449e+20 0 174.892 2.2816 0.00127105 0.0635523 
604 1.9626e+21 0 191.086 5.17778 0.000628981 0.031449 
605 1.5224e+21 0 236.651 4.97417 0.000866429 0.0433214 
606 1.8581e+21 0 176.988 4.54041 0.000648756 0.0324378 
607 1.436e+21 0 143.656 2.84814 0.000786872 0.0393436 
608 1.7091e+21 0 226.604 5.34711 0.000761472 0.0380736 
609 2.7955e+21 0 337.612 13.0305 0.000526791 0.0263395 
610 2.1165e+21 0 383.09 11.1944 0.000723591 0.0361795 
611 1.1797e+21 0 266.181 4.33543 0.00115964 0.0579818 
612 1.092e+21 0 233.38 3.5186 0.00120272 0.0601361 
613 2.2078e+21 0 1818.38 55.4278 0.00112417 0.0562083 
614 1.5304e+21 0 1615.4 34.1325 0.00156333 0.0781664 
615 2.6541e+21 0 1607.71 58.9127 0.000900109 0.0450055 
616 2.3477e+21 0 888.944 28.8138 0.000846831 0.0423415 
617 2.7258e+21 0 1201.72 45.2252 0.000800816 0.0400408 
618 6.733e+20 0 1387.05 12.8939 0.00338944 0.169472 
619 3.322e+20 0 1011.81 4.64069 0.00622973 0.311487 
620 9.225e+20 0 865.526 11.0238 0.00213736 0.106868 
621 1.9751e+21 0 760.201 20.7301 0.00095893 0.0479465 
622 8.127e+20 0 262.242 2.9425 0.00167554 0.0837772 
623 1.482e+21 0 394.095 8.06365 0.0010425 0.052125 
624 1.042e+21 0 334.217 4.80816 0.00140886 0.0704432 
625 9.962e+20 0 391.58 5.3858 0.0015478 0.0773902 
626 2.588e+20 0 290.277 1.03719 0.00542995 0.271497 
627 1.283e+21 0 414.514 7.34259 0.0012232 0.0611602 
628 1.3446e+21 0 744.636 13.8236 0.00139958 0.069979 
629 1.3109e+21 0 1406.26 25.4518 0.00174831 0.0874156 
630 1.582e+20 0 835.504 1.8249 0.0123278 0.61639 
631 0 0 0 0 1e+20 5e+21 
632 1.562e+20 0 177.083 0.381892 0.00771865 0.385933 
633 7.775e+20 0 498.258 5.34857 0.00213697 0.106848 
634 9.131e+20 0 681.776 8.59494 0.00200539 0.100269 
635 4.713e+20 0 888.822 5.78356 0.00421816 0.210908 
636 0 0 0 0 1e+20 5e+21 
637 1.1026e+21 0 856.449 13.0377 0.00178241 0.0891205 
638 1.2314e+21 0 627.264 10.6643 0.0014491 0.072455 
639 1.0114e+21 0 639.09 8.92418 0.00177455 0.0887277 
640 1.1515e+21 0 635.198 10.0985 0.0015557 0.077785 
641 1.2789e+21 0 767.287 13.5481 0.00148521 0.0742606 
642 1.1335e+21 0 489.087 7.65405 0.00145739 0.0728696 
643 7.157e+20 0 155.222 1.53379 0.00161716 0.0808579 
644 1.21e+21 0 362.936 6.06316 0.00124466 0.0622329 
645 1.876e+21 0 298.497 7.73136 0.000755591 0.0377795 
646 1.1245e+21 0 291.827 4.53073 0.00125175 0.0625875 
647 1.0887e+21 0 310.302 4.66419 0.00131775 0.0658875 
648 7.591e+20 0 235.049 2.46343 0.001734 0.0866998 
649 1.4494e+21 0 210.04 4.20314 0.000877028 0.0438514 
650 7.81e+20 0 111.937 1.207 0.00133912 0.0669559 
651 1.0254e+21 0 315.053 4.46026 0.0014057 0.0702852 
652 1.1837e+21 0 232.494 3.79958 0.00110824 0.055412 
653 1.2244e+21 0 271.482 4.58931 0.00112415 0.0562075 
654 2.4356e+21 0 240.795 8.09724 0.000544494 0.0272247 
655 3.0283e+21 0 268.17 11.2122 0.000452789 0.0226395 
656 7.897e+20 0 75.9661 0.828257 0.00117441 0.0587203 
657 8.952e+20 0 225.249 2.78398 0.00145109 0.0725543 
658 1.3742e+21 0 271.388 5.149 0.0010015 0.050075 
659 2.4079e+21 0 273 9.07579 0.000572611 0.0286306 
660 1.858e+21 0 279.399 7.16728 0.000747433 0.0373716 
661 1.3565e+21 0 267.792 5.01534 0.00101038 0.0505191 
662 8.072e+20 0 267.122 2.97697 0.00169663 0.0848315 
663 1.4386e+21 0 734.741 14.5934 0.00130272 0.0651358 
664 1.8144e+21 0 1611.82 40.3769 0.00131772 0.065886 
665 1.5867e+21 0 1334.31 29.2304 0.00142109 0.0710547 
666 9.343e+20 0 859.138 11.0824 0.00210553 0.105276 
667 2.4948e+21 0 1065.43 36.6981 0.000842918 0.0421459 
668 2.1953e+21 0 834.152 25.2826 0.000887933 0.0443966 
669 1.1082e+21 0 1532.06 23.441 0.00212376 0.106188 
670 2.4983e+21 0 679.68 23.444 0.000732247 0.0366124 
671 2.4885e+21 0 382.347 13.1365 0.000615053 0.0307526 
672 1.153e+21 0 607.04 9.66339 0.00153199 0.0765995 
673 6.712e+20 0 390.794 3.62146 0.00229583 0.114792 
674 1.6097e+21 0 485.31 10.7857 0.00102379 0.0511893 
675 1.3517e+21 0 419.597 7.83061 0.00116543 0.0582714 
676 8.977e+20 0 262.179 3.24947 0.00151678 0.0758389 
677 5.019e+20 0 405.242 2.80811 0.003105 0.15525 
678 5.8e+20 0 652.98 5.22891 0.00311515 0.155757 
679 2.8917e+21 0 958.091 38.251 0.000703673 0.0351837 
680 9.497e+20 0 260.672 3.41793 0.00143117 0.0715584 
681 3.054e+20 0 -2.5296e-10 -1.06661e-12 -nan -nan 
682 1.8081e+21 0 376.193 9.39111 0.000842254 0.0421127 
683 1.9199e+21 0 711.588 18.8621 0.000966497 0.0483248 
684 1.2238e+21 0 719.819 12.1623 0.00152166 0.0760829 
685 1.8793e+21 0 972.803 25.2409 0.00108788 0.0543938 
686 2.2032e+21 0 605.19 18.409 0.000800978 0.0400489 
687 1.463e+21 0 783.251 15.8208 0.00130663 0.0653316 
688 1.9998e+21 0 226.413 6.25131 0.00065061 0.0325305 
689 1.8182e+21 0 798.96 20.0563 0.00105786 0.0528931 
690 7.843e+20 0 448.8 4.8598 0.00205089 0.102544 
691 2.2257e+21 0 568.603 17.4726 0.0007777 0.038885 
692 2.013e+21 0 511.356 14.2119 0.000832048 0.0416024 
693 9.805e+20 0 245.101 3.318 0.00136 0.0679998 
694 9.141e+20 0 202.057 2.55006 0.00137401 0.0687007 
695 6.493e+20 0 121.101 1.08562 0.00165051 0.0825256 
696 4.4e+18 0 -1.18359e-11 -7.19014e-16 -nan -nan 
697 7.691e+20 0 238.968 2.5375 0.00172025 0.0860123 
698 1.4483e+21 0 243.23 4.86361 0.000918533 0.0459267 
699 1.2743e+21 0 234.683 4.12893 0.00103244 0.0516221 
700 9.689e+20 0 258.666 3.4602 0.00139945 0.0699726 
701 2.408e+21 0 343.248 11.4116 0.00061471 0.0307355 
702 1.1594e+21 0 198.873 3.18341 0.00107799 0.0538993 
703 1.318e+21 0 246.62 4.48772 0.00101368 0.050684 
704 1.4048e+21 0 203.197 3.94109 0.000895629 0.0447815 
705 9.066e+20 0 184.1 2.30437 0.00134598 0.0672991 
706 1.842e+20 0 340.008 0.864693 0.00801235 0.400618 
707 3.208e+20 0 -6.84231e-10 -3.03054e-12 -nan -nan 
708 7.435e+20 0 105.577 1.08376 0.00138138 0.069069 
709 9.511e+20 0 143.495 1.88429 0.00118763 0.0593816 
710 1.0029e+21 0 215.874 2.9891 0.0012783 0.063915 
711 1.0408e+21 0 181.665 2.61049 0.0011676 0.0583801 
712 2.3761e+21 0 222.873 7.31147 0.000544905 0.0272453 
713 2.473e+21 0 241.613 8.24951 0.000536823 0.0268412 
714 3.5684e+21 0 854.777 42.1123 0.000550413 0.0275207 
715 2.2557e+21 0 918.767 28.6134 0.000890431 0.0445216 
716 2.0198e+21 0 917.736 25.5923 0.000994082 0.0497041 
717 1.6127e+21 0 983.322 21.8944 0.00127195 0.0635975 