ITEM: TIMESTEP
0
ITEM: NUMBER OF CELLS
2500
ITEM: BOX BOUNDS oo rr pp
0 1.5
0 0.5
-0.5 0.5
ITEM: CELLS id f_1[1] f_1[6] f_5[1] f_5[2] c_3[1] c_3[2] 
1 0 0 0 0 1e+20 5e+21 
2 0 0 0 0 1e+20 5e+21 
3 0 0 0 0 1e+20 5e+21 
4 0 0 0 0 1e+20 5e+21 
5 0 0 0 0 1e+20 5e+21 
6 0 0 0 0 1e+20 5e+21 
7 0 0 0 0 1e+20 5e+21 
8 0 0 0 0 1e+20 5e+21 
9 0 0 0 0 1e+20 5e+21 
10 0 0 0 0 1e+20 5e+21 
11 0 0 0 0 1e+20 5e+21 
12 0 0 0 0 1e+20 5e+21 
13 0 0 0 0 1e+20 5e+21 
14 0 0 0 0 1e+20 5e+21 
15 0 0 0 0 1e+20 5e+21 
16 0 0 0 0 1e+20 5e+21 
17 0 0 0 0 1e+20 5e+21 
18 0 0 0 0 1e+20 5e+21 
19 0 0 0 0 1e+20 5e+21 
20 0 0 0 0 1e+20 5e+21 
21 0 0 0 0 1e+20 5e+21 
22 0 0 0 0 1e+20 5e+21 
23 0 0 0 0 1e+20 5e+21 
24 0 0 0 0 1e+20 5e+21 
25 0 0 0 0 1e+20 5e+21 
26 0 0 0 0 1e+20 5e+21 
27 0 0 0 0 1e+20 5e+21 
28 0 0 0 0 1e+20 5e+21 
29 0 0 0 0 1e+20 5e+21 
30 0 0 0 0 1e+20 5e+21 
31 0 0 0 0 1e+20 5e+21 
32 0 0 0 0 1e+20 5e+21 
33 0 0 0 0 1e+20 5e+21 
34 0 0 0 0 1e+20 5e+21 
35 0 0 0 0 1e+20 5e+21 
36 0 0 0 0 1e+20 5e+21 
37 0 0 0 0 1e+20 5e+21 
38 0 0 0 0 1e+20 5e+21 
39 0 0 0 0 1e+20 5e+21 
40 0 0 0 0 1e+20 5e+21 
41 0 0 0 0 1e+20 5e+21 
42 0 0 0 0 1e+20 5e+21 
43 0 0 0 0 1e+20 5e+21 
44 0 0 0 0 1e+20 5e+21 
45 0 0 0 0 1e+20 5e+21 
46 0 0 0 0 1e+20 5e+21 
47 0 0 0 0 1e+20 5e+21 
48 0 0 0 0 1e+20 5e+21 
49 0 0 0 0 1e+20 5e+21 
50 0 0 0 0 1e+20 5e+21 
51 0 0 0 0 1e+20 5e+21 
52 0 0 0 0 1e+20 5e+21 
53 0 0 0 0 1e+20 5e+21 
54 0 0 0 0 1e+20 5e+21 
55 0 0 0 0 1e+20 5e+21 
56 0 0 0 0 1e+20 5e+21 
57 0 0 0 0 1e+20 5e+21 
58 0 0 0 0 1e+20 5e+21 
59 0 0 0 0 1e+20 5e+21 
60 0 0 0 0 1e+20 5e+21 
61 0 0 0 0 1e+20 5e+21 
62 0 0 0 0 1e+20 5e+21 
63 0 0 0 0 1e+20 5e+21 
64 0 0 0 0 1e+20 5e+21 
65 0 0 0 0 1e+20 5e+21 
66 0 0 0 0 1e+20 5e+21 
67 0 0 0 0 1e+20 5e+21 
68 0 0 0 0 1e+20 5e+21 
69 0 0 0 0 1e+20 5e+21 
70 0 0 0 0 1e+20 5e+21 
71 0 0 0 0 1e+20 5e+21 
72 0 0 0 0 1e+20 5e+21 
73 0 0 0 0 1e+20 5e+21 
74 0 0 0 0 1e+20 5e+21 
75 0 0 0 0 1e+20 5e+21 
76 0 0 0 0 1e+20 5e+21 
77 0 0 0 0 1e+20 5e+21 
78 0 0 0 0 1e+20 5e+21 
79 0 0 0 0 1e+20 5e+21 
80 0 0 0 0 1e+20 5e+21 
81 0 0 0 0 1e+20 5e+21 
82 0 0 0 0 1e+20 5e+21 
83 0 0 0 0 1e+20 5e+21 
84 0 0 0 0 1e+20 5e+21 
85 0 0 0 0 1e+20 5e+21 
86 0 0 0 0 1e+20 5e+21 
87 0 0 0 0 1e+20 5e+21 
88 0 0 0 0 1e+20 5e+21 
89 0 0 0 0 1e+20 5e+21 
90 0 0 0 0 1e+20 5e+21 
91 0 0 0 0 1e+20 5e+21 
92 0 0 0 0 1e+20 5e+21 
93 0 0 0 0 1e+20 5e+21 
94 0 0 0 0 1e+20 5e+21 
95 0 0 0 0 1e+20 5e+21 
96 0 0 0 0 1e+20 5e+21 
97 0 0 0 0 1e+20 5e+21 
98 0 0 0 0 1e+20 5e+21 
99 0 0 0 0 1e+20 5e+21 
100 0 0 0 0 1e+20 5e+21 
101 0 0 0 0 1e+20 5e+21 
102 0 0 0 0 1e+20 5e+21 
103 0 0 0 0 1e+20 5e+21 
104 0 0 0 0 1e+20 5e+21 
105 0 0 0 0 1e+20 5e+21 
106 0 0 0 0 1e+20 5e+21 
107 0 0 0 0 1e+20 5e+21 
108 0 0 0 0 1e+20 5e+21 
109 0 0 0 0 1e+20 5e+21 
110 0 0 0 0 1e+20 5e+21 
111 0 0 0 0 1e+20 5e+21 
112 0 0 0 0 1e+20 5e+21 
113 0 0 0 0 1e+20 5e+21 
114 0 0 0 0 1e+20 5e+21 
115 0 0 0 0 1e+20 5e+21 
116 0 0 0 0 1e+20 5e+21 
117 0 0 0 0 1e+20 5e+21 
118 0 0 0 0 1e+20 5e+21 
119 0 0 0 0 1e+20 5e+21 
120 0 0 0 0 1e+20 5e+21 
121 0 0 0 0 1e+20 5e+21 
122 0 0 0 0 1e+20 5e+21 
123 0 0 0 0 1e+20 5e+21 
124 0 0 0 0 1e+20 5e+21 
125 0 0 0 0 1e+20 5e+21 
126 0 0 0 0 1e+20 5e+21 
127 0 0 0 0 1e+20 5e+21 
128 0 0 0 0 1e+20 5e+21 
129 0 0 0 0 1e+20 5e+21 
130 0 0 0 0 1e+20 5e+21 
131 0 0 0 0 1e+20 5e+21 
132 0 0 0 0 1e+20 5e+21 
133 0 0 0 0 1e+20 5e+21 
134 0 0 0 0 1e+20 5e+21 
135 0 0 0 0 1e+20 5e+21 
136 0 0 0 0 1e+20 5e+21 
137 0 0 0 0 1e+20 5e+21 
138 0 0 0 0 1e+20 5e+21 
139 0 0 0 0 1e+20 5e+21 
140 0 0 0 0 1e+20 5e+21 
141 0 0 0 0 1e+20 5e+21 
142 0 0 0 0 1e+20 5e+21 
143 0 0 0 0 1e+20 5e+21 
144 0 0 0 0 1e+20 5e+21 
145 0 0 0 0 1e+20 5e+21 
146 0 0 0 0 1e+20 5e+21 
147 0 0 0 0 1e+20 5e+21 
148 0 0 0 0 1e+20 5e+21 
149 0 0 0 0 1e+20 5e+21 
150 0 0 0 0 1e+20 5e+21 
151 0 0 0 0 1e+20 5e+21 
152 0 0 0 0 1e+20 5e+21 
153 0 0 0 0 1e+20 5e+21 
154 0 0 0 0 1e+20 5e+21 
155 0 0 0 0 1e+20 5e+21 
156 0 0 0 0 1e+20 5e+21 
157 0 0 0 0 1e+20 5e+21 
158 0 0 0 0 1e+20 5e+21 
159 0 0 0 0 1e+20 5e+21 
160 0 0 0 0 1e+20 5e+21 
161 0 0 0 0 1e+20 5e+21 
162 0 0 0 0 1e+20 5e+21 
163 0 0 0 0 1e+20 5e+21 
164 0 0 0 0 1e+20 5e+21 
165 0 0 0 0 1e+20 5e+21 
166 0 0 0 0 1e+20 5e+21 
167 0 0 0 0 1e+20 5e+21 
168 0 0 0 0 1e+20 5e+21 
169 0 0 0 0 1e+20 5e+21 
170 0 0 0 0 1e+20 5e+21 
171 0 0 0 0 1e+20 5e+21 
172 0 0 0 0 1e+20 5e+21 
173 0 0 0 0 1e+20 5e+21 
174 0 0 0 0 1e+20 5e+21 
175 0 0 0 0 1e+20 5e+21 
176 0 0 0 0 1e+20 5e+21 
177 0 0 0 0 1e+20 5e+21 
178 0 0 0 0 1e+20 5e+21 
179 0 0 0 0 1e+20 5e+21 
180 0 0 0 0 1e+20 5e+21 
181 0 0 0 0 1e+20 5e+21 
182 0 0 0 0 1e+20 5e+21 
183 0 0 0 0 1e+20 5e+21 
184 0 0 0 0 1e+20 5e+21 
185 0 0 0 0 1e+20 5e+21 
186 0 0 0 0 1e+20 5e+21 
187 0 0 0 0 1e+20 5e+21 
188 0 0 0 0 1e+20 5e+21 
189 0 0 0 0 1e+20 5e+21 
190 0 0 0 0 1e+20 5e+21 
191 0 0 0 0 1e+20 5e+21 
192 0 0 0 0 1e+20 5e+21 
193 0 0 0 0 1e+20 5e+21 
194 0 0 0 0 1e+20 5e+21 
195 0 0 0 0 1e+20 5e+21 
196 0 0 0 0 1e+20 5e+21 
197 0 0 0 0 1e+20 5e+21 
198 0 0 0 0 1e+20 5e+21 
199 0 0 0 0 1e+20 5e+21 
200 0 0 0 0 1e+20 5e+21 
201 0 0 0 0 1e+20 5e+21 
202 0 0 0 0 1e+20 5e+21 
203 0 0 0 0 1e+20 5e+21 
204 0 0 0 0 1e+20 5e+21 
205 0 0 0 0 1e+20 5e+21 
206 0 0 0 0 1e+20 5e+21 
207 0 0 0 0 1e+20 5e+21 
208 0 0 0 0 1e+20 5e+21 
209 0 0 0 0 1e+20 5e+21 
210 0 0 0 0 1e+20 5e+21 
211 0 0 0 0 1e+20 5e+21 
212 0 0 0 0 1e+20 5e+21 
213 0 0 0 0 1e+20 5e+21 
214 0 0 0 0 1e+20 5e+21 
215 0 0 0 0 1e+20 5e+21 
216 0 0 0 0 1e+20 5e+21 
217 0 0 0 0 1e+20 5e+21 
218 0 0 0 0 1e+20 5e+21 
219 0 0 0 0 1e+20 5e+21 
220 0 0 0 0 1e+20 5e+21 
221 0 0 0 0 1e+20 5e+21 
222 0 0 0 0 1e+20 5e+21 
223 0 0 0 0 1e+20 5e+21 
224 0 0 0 0 1e+20 5e+21 
225 0 0 0 0 1e+20 5e+21 
226 0 0 0 0 1e+20 5e+21 
227 0 0 0 0 1e+20 5e+21 
228 0 0 0 0 1e+20 5e+21 
229 0 0 0 0 1e+20 5e+21 
230 0 0 0 0 1e+20 5e+21 
231 0 0 0 0 1e+20 5e+21 
232 0 0 0 0 1e+20 5e+21 
233 0 0 0 0 1e+20 5e+21 
234 0 0 0 0 1e+20 5e+21 
235 0 0 0 0 1e+20 5e+21 
236 0 0 0 0 1e+20 5e+21 
237 0 0 0 0 1e+20 5e+21 
238 0 0 0 0 1e+20 5e+21 
239 0 0 0 0 1e+20 5e+21 
240 0 0 0 0 1e+20 5e+21 
241 0 0 0 0 1e+20 5e+21 
242 0 0 0 0 1e+20 5e+21 
243 0 0 0 0 1e+20 5e+21 
244 0 0 0 0 1e+20 5e+21 
245 0 0 0 0 1e+20 5e+21 
246 0 0 0 0 1e+20 5e+21 
247 0 0 0 0 1e+20 5e+21 
248 0 0 0 0 1e+20 5e+21 
249 0 0 0 0 1e+20 5e+21 
250 0 0 0 0 1e+20 5e+21 
251 0 0 0 0 1e+20 5e+21 
252 0 0 0 0 1e+20 5e+21 
253 0 0 0 0 1e+20 5e+21 
254 0 0 0 0 1e+20 5e+21 
255 0 0 0 0 1e+20 5e+21 
256 0 0 0 0 1e+20 5e+21 
257 0 0 0 0 1e+20 5e+21 
258 0 0 0 0 1e+20 5e+21 
259 0 0 0 0 1e+20 5e+21 
260 0 0 0 0 1e+20 5e+21 
261 0 0 0 0 1e+20 5e+21 
262 0 0 0 0 1e+20 5e+21 
263 0 0 0 0 1e+20 5e+21 
264 0 0 0 0 1e+20 5e+21 
265 0 0 0 0 1e+20 5e+21 
266 0 0 0 0 1e+20 5e+21 
267 0 0 0 0 1e+20 5e+21 
268 0 0 0 0 1e+20 5e+21 
269 0 0 0 0 1e+20 5e+21 
270 0 0 0 0 1e+20 5e+21 
271 0 0 0 0 1e+20 5e+21 
272 0 0 0 0 1e+20 5e+21 
273 0 0 0 0 1e+20 5e+21 
274 0 0 0 0 1e+20 5e+21 
275 0 0 0 0 1e+20 5e+21 
276 0 0 0 0 1e+20 5e+21 
277 0 0 0 0 1e+20 5e+21 
278 0 0 0 0 1e+20 5e+21 
279 0 0 0 0 1e+20 5e+21 
280 0 0 0 0 1e+20 5e+21 
281 0 0 0 0 1e+20 5e+21 
282 0 0 0 0 1e+20 5e+21 
283 0 0 0 0 1e+20 5e+21 
284 0 0 0 0 1e+20 5e+21 
285 0 0 0 0 1e+20 5e+21 
286 0 0 0 0 1e+20 5e+21 
287 0 0 0 0 1e+20 5e+21 
288 0 0 0 0 1e+20 5e+21 
289 0 0 0 0 1e+20 5e+21 
290 0 0 0 0 1e+20 5e+21 
291 0 0 0 0 1e+20 5e+21 
292 0 0 0 0 1e+20 5e+21 
293 0 0 0 0 1e+20 5e+21 
294 0 0 0 0 1e+20 5e+21 
295 0 0 0 0 1e+20 5e+21 
296 0 0 0 0 1e+20 5e+21 
297 0 0 0 0 1e+20 5e+21 
298 0 0 0 0 1e+20 5e+21 
299 0 0 0 0 1e+20 5e+21 
300 0 0 0 0 1e+20 5e+21 
301 0 0 0 0 1e+20 5e+21 
302 0 0 0 0 1e+20 5e+21 
303 0 0 0 0 1e+20 5e+21 
304 0 0 0 0 1e+20 5e+21 
305 0 0 0 0 1e+20 5e+21 
306 0 0 0 0 1e+20 5e+21 
307 0 0 0 0 1e+20 5e+21 
308 0 0 0 0 1e+20 5e+21 
309 0 0 0 0 1e+20 5e+21 
310 0 0 0 0 1e+20 5e+21 
311 0 0 0 0 1e+20 5e+21 
312 0 0 0 0 1e+20 5e+21 
313 0 0 0 0 1e+20 5e+21 
314 0 0 0 0 1e+20 5e+21 
315 0 0 0 0 1e+20 5e+21 
316 0 0 0 0 1e+20 5e+21 
317 0 0 0 0 1e+20 5e+21 
318 0 0 0 0 1e+20 5e+21 
319 0 0 0 0 1e+20 5e+21 
320 0 0 0 0 1e+20 5e+21 
321 0 0 0 0 1e+20 5e+21 
322 0 0 0 0 1e+20 5e+21 
323 0 0 0 0 1e+20 5e+21 
324 0 0 0 0 1e+20 5e+21 
325 0 0 0 0 1e+20 5e+21 
326 0 0 0 0 1e+20 5e+21 
327 0 0 0 0 1e+20 5e+21 
328 0 0 0 0 1e+20 5e+21 
329 0 0 0 0 1e+20 5e+21 
330 0 0 0 0 1e+20 5e+21 
331 0 0 0 0 1e+20 5e+21 
332 0 0 0 0 1e+20 5e+21 
333 0 0 0 0 1e+20 5e+21 
334 0 0 0 0 1e+20 5e+21 
335 0 0 0 0 1e+20 5e+21 
336 0 0 0 0 1e+20 5e+21 
337 0 0 0 0 1e+20 5e+21 
338 0 0 0 0 1e+20 5e+21 
339 0 0 0 0 1e+20 5e+21 
340 0 0 0 0 1e+20 5e+21 
341 0 0 0 0 1e+20 5e+21 
342 0 0 0 0 1e+20 5e+21 
343 0 0 0 0 1e+20 5e+21 
344 0 0 0 0 1e+20 5e+21 
345 0 0 0 0 1e+20 5e+21 
346 0 0 0 0 1e+20 5e+21 
347 0 0 0 0 1e+20 5e+21 
348 0 0 0 0 1e+20 5e+21 
349 0 0 0 0 1e+20 5e+21 
350 0 0 0 0 1e+20 5e+21 
351 0 0 0 0 1e+20 5e+21 
352 0 0 0 0 1e+20 5e+21 
353 0 0 0 0 1e+20 5e+21 
354 0 0 0 0 1e+20 5e+21 
355 0 0 0 0 1e+20 5e+21 
356 0 0 0 0 1e+20 5e+21 
357 0 0 0 0 1e+20 5e+21 
358 0 0 0 0 1e+20 5e+21 
359 0 0 0 0 1e+20 5e+21 
360 0 0 0 0 1e+20 5e+21 
361 0 0 0 0 1e+20 5e+21 
362 0 0 0 0 1e+20 5e+21 
363 0 0 0 0 1e+20 5e+21 
364 0 0 0 0 1e+20 5e+21 
365 0 0 0 0 1e+20 5e+21 
366 0 0 0 0 1e+20 5e+21 
367 0 0 0 0 1e+20 5e+21 
368 0 0 0 0 1e+20 5e+21 
369 0 0 0 0 1e+20 5e+21 
370 0 0 0 0 1e+20 5e+21 
371 0 0 0 0 1e+20 5e+21 
372 0 0 0 0 1e+20 5e+21 
373 0 0 0 0 1e+20 5e+21 
374 0 0 0 0 1e+20 5e+21 
375 0 0 0 0 1e+20 5e+21 
376 0 0 0 0 1e+20 5e+21 
377 0 0 0 0 1e+20 5e+21 
378 0 0 0 0 1e+20 5e+21 
379 0 0 0 0 1e+20 5e+21 
380 0 0 0 0 1e+20 5e+21 
381 0 0 0 0 1e+20 5e+21 
382 0 0 0 0 1e+20 5e+21 
383 0 0 0 0 1e+20 5e+21 
384 0 0 0 0 1e+20 5e+21 
385 0 0 0 0 1e+20 5e+21 
386 0 0 0 0 1e+20 5e+21 
387 0 0 0 0 1e+20 5e+21 
388 0 0 0 0 1e+20 5e+21 
389 0 0 0 0 1e+20 5e+21 
390 0 0 0 0 1e+20 5e+21 
391 0 0 0 0 1e+20 5e+21 
392 0 0 0 0 1e+20 5e+21 
393 0 0 0 0 1e+20 5e+21 
394 0 0 0 0 1e+20 5e+21 
395 0 0 0 0 1e+20 5e+21 
396 0 0 0 0 1e+20 5e+21 
397 0 0 0 0 1e+20 5e+21 
398 0 0 0 0 1e+20 5e+21 
399 0 0 0 0 1e+20 5e+21 
400 0 0 0 0 1e+20 5e+21 
401 0 0 0 0 1e+20 5e+21 
402 0 0 0 0 1e+20 5e+21 
403 0 0 0 0 1e+20 5e+21 
404 0 0 0 0 1e+20 5e+21 
405 0 0 0 0 1e+20 5e+21 
406 0 0 0 0 1e+20 5e+21 
407 0 0 0 0 1e+20 5e+21 
408 0 0 0 0 1e+20 5e+21 
409 0 0 0 0 1e+20 5e+21 
410 0 0 0 0 1e+20 5e+21 
411 0 0 0 0 1e+20 5e+21 
412 0 0 0 0 1e+20 5e+21 
413 0 0 0 0 1e+20 5e+21 
414 0 0 0 0 1e+20 5e+21 
415 0 0 0 0 1e+20 5e+21 
416 0 0 0 0 1e+20 5e+21 
417 0 0 0 0 1e+20 5e+21 
418 0 0 0 0 1e+20 5e+21 
419 0 0 0 0 1e+20 5e+21 
420 0 0 0 0 1e+20 5e+21 
421 0 0 0 0 1e+20 5e+21 
422 0 0 0 0 1e+20 5e+21 
423 0 0 0 0 1e+20 5e+21 
424 0 0 0 0 1e+20 5e+21 
425 0 0 0 0 1e+20 5e+21 
426 0 0 0 0 1e+20 5e+21 
427 0 0 0 0 1e+20 5e+21 
428 0 0 0 0 1e+20 5e+21 
429 0 0 0 0 1e+20 5e+21 
430 0 0 0 0 1e+20 5e+21 
431 0 0 0 0 1e+20 5e+21 
432 0 0 0 0 1e+20 5e+21 
433 0 0 0 0 1e+20 5e+21 
434 0 0 0 0 1e+20 5e+21 
435 0 0 0 0 1e+20 5e+21 
436 0 0 0 0 1e+20 5e+21 
437 0 0 0 0 1e+20 5e+21 
438 0 0 0 0 1e+20 5e+21 
439 0 0 0 0 1e+20 5e+21 
440 0 0 0 0 1e+20 5e+21 
441 0 0 0 0 1e+20 5e+21 
442 0 0 0 0 1e+20 5e+21 
443 0 0 0 0 1e+20 5e+21 
444 0 0 0 0 1e+20 5e+21 
445 0 0 0 0 1e+20 5e+21 
446 0 0 0 0 1e+20 5e+21 
447 0 0 0 0 1e+20 5e+21 
448 0 0 0 0 1e+20 5e+21 
449 0 0 0 0 1e+20 5e+21 
450 0 0 0 0 1e+20 5e+21 
451 0 0 0 0 1e+20 5e+21 
452 0 0 0 0 1e+20 5e+21 
453 0 0 0 0 1e+20 5e+21 
454 0 0 0 0 1e+20 5e+21 
455 0 0 0 0 1e+20 5e+21 
456 0 0 0 0 1e+20 5e+21 
457 0 0 0 0 1e+20 5e+21 
458 0 0 0 0 1e+20 5e+21 
459 0 0 0 0 1e+20 5e+21 
460 0 0 0 0 1e+20 5e+21 
461 0 0 0 0 1e+20 5e+21 
462 0 0 0 0 1e+20 5e+21 
463 0 0 0 0 1e+20 5e+21 
464 0 0 0 0 1e+20 5e+21 
465 0 0 0 0 1e+20 5e+21 
466 0 0 0 0 1e+20 5e+21 
467 0 0 0 0 1e+20 5e+21 
468 0 0 0 0 1e+20 5e+21 
469 0 0 0 0 1e+20 5e+21 
470 0 0 0 0 1e+20 5e+21 
471 0 0 0 0 1e+20 5e+21 
472 0 0 0 0 1e+20 5e+21 
473 0 0 0 0 1e+20 5e+21 
474 0 0 0 0 1e+20 5e+21 
475 0 0 0 0 1e+20 5e+21 
476 0 0 0 0 1e+20 5e+21 
477 0 0 0 0 1e+20 5e+21 
478 0 0 0 0 1e+20 5e+21 
479 0 0 0 0 1e+20 5e+21 
480 0 0 0 0 1e+20 5e+21 
481 0 0 0 0 1e+20 5e+21 
482 0 0 0 0 1e+20 5e+21 
483 0 0 0 0 1e+20 5e+21 
484 0 0 0 0 1e+20 5e+21 
485 0 0 0 0 1e+20 5e+21 
486 0 0 0 0 1e+20 5e+21 
487 0 0 0 0 1e+20 5e+21 
488 0 0 0 0 1e+20 5e+21 
489 0 0 0 0 1e+20 5e+21 
490 0 0 0 0 1e+20 5e+21 
491 0 0 0 0 1e+20 5e+21 
492 0 0 0 0 1e+20 5e+21 
493 0 0 0 0 1e+20 5e+21 
494 0 0 0 0 1e+20 5e+21 
495 0 0 0 0 1e+20 5e+21 
496 0 0 0 0 1e+20 5e+21 
497 0 0 0 0 1e+20 5e+21 
498 0 0 0 0 1e+20 5e+21 
499 0 0 0 0 1e+20 5e+21 
500 0 0 0 0 1e+20 5e+21 
501 0 0 0 0 1e+20 5e+21 
502 0 0 0 0 1e+20 5e+21 
503 0 0 0 0 1e+20 5e+21 
504 0 0 0 0 1e+20 5e+21 
505 0 0 0 0 1e+20 5e+21 
506 0 0 0 0 1e+20 5e+21 
507 0 0 0 0 1e+20 5e+21 
508 0 0 0 0 1e+20 5e+21 
509 0 0 0 0 1e+20 5e+21 
510 0 0 0 0 1e+20 5e+21 
511 0 0 0 0 1e+20 5e+21 
512 0 0 0 0 1e+20 5e+21 
513 0 0 0 0 1e+20 5e+21 
514 0 0 0 0 1e+20 5e+21 
515 0 0 0 0 1e+20 5e+21 
516 0 0 0 0 1e+20 5e+21 
517 0 0 0 0 1e+20 5e+21 
518 0 0 0 0 1e+20 5e+21 
519 0 0 0 0 1e+20 5e+21 
520 0 0 0 0 1e+20 5e+21 
521 0 0 0 0 1e+20 5e+21 
522 0 0 0 0 1e+20 5e+21 
523 0 0 0 0 1e+20 5e+21 
524 0 0 0 0 1e+20 5e+21 
525 0 0 0 0 1e+20 5e+21 
526 0 0 0 0 1e+20 5e+21 
527 0 0 0 0 1e+20 5e+21 
528 0 0 0 0 1e+20 5e+21 
529 0 0 0 0 1e+20 5e+21 
530 0 0 0 0 1e+20 5e+21 
531 0 0 0 0 1e+20 5e+21 
532 0 0 0 0 1e+20 5e+21 
533 0 0 0 0 1e+20 5e+21 
534 0 0 0 0 1e+20 5e+21 
535 0 0 0 0 1e+20 5e+21 
536 0 0 0 0 1e+20 5e+21 
537 0 0 0 0 1e+20 5e+21 
538 0 0 0 0 1e+20 5e+21 
539 0 0 0 0 1e+20 5e+21 
540 0 0 0 0 1e+20 5e+21 
541 0 0 0 0 1e+20 5e+21 
542 0 0 0 0 1e+20 5e+21 
543 0 0 0 0 1e+20 5e+21 
544 0 0 0 0 1e+20 5e+21 
545 0 0 0 0 1e+20 5e+21 
546 0 0 0 0 1e+20 5e+21 
547 0 0 0 0 1e+20 5e+21 
548 0 0 0 0 1e+20 5e+21 
549 0 0 0 0 1e+20 5e+21 
550 0 0 0 0 1e+20 5e+21 
551 0 0 0 0 1e+20 5e+21 
552 0 0 0 0 1e+20 5e+21 
553 0 0 0 0 1e+20 5e+21 
554 0 0 0 0 1e+20 5e+21 
555 0 0 0 0 1e+20 5e+21 
556 0 0 0 0 1e+20 5e+21 
557 0 0 0 0 1e+20 5e+21 
558 0 0 0 0 1e+20 5e+21 
559 0 0 0 0 1e+20 5e+21 
560 0 0 0 0 1e+20 5e+21 
561 0 0 0 0 1e+20 5e+21 
562 0 0 0 0 1e+20 5e+21 
563 0 0 0 0 1e+20 5e+21 
564 0 0 0 0 1e+20 5e+21 
565 0 0 0 0 1e+20 5e+21 
566 0 0 0 0 1e+20 5e+21 
567 0 0 0 0 1e+20 5e+21 
568 0 0 0 0 1e+20 5e+21 
569 0 0 0 0 1e+20 5e+21 
570 0 0 0 0 1e+20 5e+21 
571 0 0 0 0 1e+20 5e+21 
572 0 0 0 0 1e+20 5e+21 
573 0 0 0 0 1e+20 5e+21 
574 0 0 0 0 1e+20 5e+21 
575 0 0 0 0 1e+20 5e+21 
576 0 0 0 0 1e+20 5e+21 
577 0 0 0 0 1e+20 5e+21 
578 0 0 0 0 1e+20 5e+21 
579 0 0 0 0 1e+20 5e+21 
580 0 0 0 0 1e+20 5e+21 
581 0 0 0 0 1e+20 5e+21 
582 0 0 0 0 1e+20 5e+21 
583 0 0 0 0 1e+20 5e+21 
584 0 0 0 0 1e+20 5e+21 
585 0 0 0 0 1e+20 5e+21 
586 0 0 0 0 1e+20 5e+21 
587 0 0 0 0 1e+20 5e+21 
588 0 0 0 0 1e+20 5e+21 
589 0 0 0 0 1e+20 5e+21 
590 0 0 0 0 1e+20 5e+21 
591 0 0 0 0 1e+20 5e+21 
592 0 0 0 0 1e+20 5e+21 
593 0 0 0 0 1e+20 5e+21 
594 0 0 0 0 1e+20 5e+21 
595 0 0 0 0 1e+20 5e+21 
596 0 0 0 0 1e+20 5e+21 
597 0 0 0 0 1e+20 5e+21 
598 0 0 0 0 1e+20 5e+21 
599 0 0 0 0 1e+20 5e+21 
600 0 0 0 0 1e+20 5e+21 
601 0 0 0 0 1e+20 5e+21 
602 0 0 0 0 1e+20 5e+21 
603 0 0 0 0 1e+20 5e+21 
604 0 0 0 0 1e+20 5e+21 
605 0 0 0 0 1e+20 5e+21 
606 0 0 0 0 1e+20 5e+21 
607 0 0 0 0 1e+20 5e+21 
608 0 0 0 0 1e+20 5e+21 
609 0 0 0 0 1e+20 5e+21 
610 0 0 0 0 1e+20 5e+21 
611 0 0 0 0 1e+20 5e+21 
612 0 0 0 0 1e+20 5e+21 
613 0 0 0 0 1e+20 5e+21 
614 0 0 0 0 1e+20 5e+21 
615 0 0 0 0 1e+20 5e+21 
616 0 0 0 0 1e+20 5e+21 
617 0 0 0 0 1e+20 5e+21 
618 0 0 0 0 1e+20 5e+21 
619 0 0 0 0 1e+20 5e+21 
620 0 0 0 0 1e+20 5e+21 
621 0 0 0 0 1e+20 5e+21 
622 0 0 0 0 1e+20 5e+21 
623 0 0 0 0 1e+20 5e+21 
624 0 0 0 0 1e+20 5e+21 
625 0 0 0 0 1e+20 5e+21 
626 0 0 0 0 1e+20 5e+21 
627 0 0 0 0 1e+20 5e+21 
628 0 0 0 0 1e+20 5e+21 
629 0 0 0 0 1e+20 5e+21 
630 0 0 0 0 1e+20 5e+21 
631 0 0 0 0 1e+20 5e+21 
632 0 0 0 0 1e+20 5e+21 
633 0 0 0 0 1e+20 5e+21 
634 0 0 0 0 1e+20 5e+21 
635 0 0 0 0 1e+20 5e+21 
636 0 0 0 0 1e+20 5e+21 
637 0 0 0 0 1e+20 5e+21 
638 0 0 0 0 1e+20 5e+21 
639 0 0 0 0 1e+20 5e+21 
640 0 0 0 0 1e+20 5e+21 
641 0 0 0 0 1e+20 5e+21 
642 0 0 0 0 1e+20 5e+21 
643 0 0 0 0 1e+20 5e+21 
644 0 0 0 0 1e+20 5e+21 
645 0 0 0 0 1e+20 5e+21 
646 0 0 0 0 1e+20 5e+21 
647 0 0 0 0 1e+20 5e+21 
648 0 0 0 0 1e+20 5e+21 
649 0 0 0 0 1e+20 5e+21 
650 0 0 0 0 1e+20 5e+21 
651 0 0 0 0 1e+20 5e+21 
652 0 0 0 0 1e+20 5e+21 
653 0 0 0 0 1e+20 5e+21 
654 0 0 0 0 1e+20 5e+21 
655 0 0 0 0 1e+20 5e+21 
656 0 0 0 0 1e+20 5e+21 
657 0 0 0 0 1e+20 5e+21 
658 0 0 0 0 1e+20 5e+21 
659 0 0 0 0 1e+20 5e+21 
660 0 0 0 0 1e+20 5e+21 
661 0 0 0 0 1e+20 5e+21 
662 0 0 0 0 1e+20 5e+21 
663 0 0 0 0 1e+20 5e+21 
664 0 0 0 0 1e+20 5e+21 
665 0 0 0 0 1e+20 5e+21 
666 0 0 0 0 1e+20 5e+21 
667 0 0 0 0 1e+20 5e+21 
668 0 0 0 0 1e+20 5e+21 
669 0 0 0 0 1e+20 5e+21 
670 0 0 0 0 1e+20 5e+21 
671 0 0 0 0 1e+20 5e+21 
672 0 0 0 0 1e+20 5e+21 
673 0 0 0 0 1e+20 5e+21 
674 0 0 0 0 1e+20 5e+21 
675 0 0 0 0 1e+20 5e+21 
676 0 0 0 0 1e+20 5e+21 
677 0 0 0 0 1e+20 5e+21 
678 0 0 0 0 1e+20 5e+21 
679 0 0 0 0 1e+20 5e+21 
680 0 0 0 0 1e+20 5e+21 
681 0 0 0 0 1e+20 5e+21 
682 0 0 0 0 1e+20 5e+21 
683 0 0 0 0 1e+20 5e+21 
684 0 0 0 0 1e+20 5e+21 
685 0 0 0 0 1e+20 5e+21 
686 0 0 0 0 1e+20 5e+21 
687 0 0 0 0 1e+20 5e+21 
688 0 0 0 0 1e+20 5e+21 
689 0 0 0 0 1e+20 5e+21 
690 0 0 0 0 1e+20 5e+21 
691 0 0 0 0 1e+20 5e+21 
692 0 0 0 0 1e+20 5e+21 
693 0 0 0 0 1e+20 5e+21 
694 0 0 0 0 1e+20 5e+21 
695 0 0 0 0 1e+20 5e+21 
696 0 0 0 0 1e+20 5e+21 
697 0 0 0 0 1e+20 5e+21 
698 0 0 0 0 1e+20 5e+21 
699 0 0 0 0 1e+20 5e+21 
700 0 0 0 0 1e+20 5e+21 
701 0 0 0 0 1e+20 5e+21 
702 0 0 0 0 1e+20 5e+21 
703 0 0 0 0 1e+20 5e+21 
704 0 0 0 0 1e+20 5e+21 
705 0 0 0 0 1e+20 5e+21 
706 0 0 0 0 1e+20 5e+21 
707 0 0 0 0 1e+20 5e+21 
708 0 0 0 0 1e+20 5e+21 
709 0 0 0 0 1e+20 5e+21 
710 0 0 0 0 1e+20 5e+21 
711 0 0 0 0 1e+20 5e+21 
712 0 0 0 0 1e+20 5e+21 
713 0 0 0 0 1e+20 5e+21 
714 0 0 0 0 1e+20 5e+21 
715 0 0 0 0 1e+20 5e+21 
716 0 0 0 0 1e+20 5e+21 
717 0 0 0 0 1e+20 5e+21 
718 0 0 0 0 1e+20 5e+21 
719 0 0 0 0 1e+20 5e+21 
720 0 0 0 0 1e+20 5e+21 
721 0 0 0 0 1e+20 5e+21 
722 0 0 0 0 1e+20 5e+21 
723 0 0 0 0 1e+20 5e+21 
724 0 0 0 0 1e+20 5e+21 
725 0 0 0 0 1e+20 5e+21 
726 0 0 0 0 1e+20 5e+21 
727 0 0 0 0 1e+20 5e+21 
728 0 0 0 0 1e+20 5e+21 
729 0 0 0 0 1e+20 5e+21 
730 0 0 0 0 1e+20 5e+21 
731 0 0 0 0 1e+20 5e+21 
732 0 0 0 0 1e+20 5e+21 
733 0 0 0 0 1e+20 5e+21 
734 0 0 0 0 1e+20 5e+21 
735 0 0 0 0 1e+20 5e+21 
736 0 0 0 0 1e+20 5e+21 
737 0 0 0 0 1e+20 5e+21 
738 0 0 0 0 1e+20 5e+21 
739 0 0 0 0 1e+20 5e+21 
740 0 0 0 0 1e+20 5e+21 
741 0 0 0 0 1e+20 5e+21 
742 0 0 0 0 1e+20 5e+21 
743 0 0 0 0 1e+20 5e+21 
744 0 0 0 0 1e+20 5e+21 
745 0 0 0 0 1e+20 5e+21 
746 0 0 0 0 1e+20 5e+21 
747 0 0 0 0 1e+20 5e+21 
748 0 0 0 0 1e+20 5e+21 
749 0 0 0 0 1e+20 5e+21 
750 0 0 0 0 1e+20 5e+21 
751 0 0 0 0 1e+20 5e+21 
752 0 0 0 0 1e+20 5e+21 
753 0 0 0 0 1e+20 5e+21 
754 0 0 0 0 1e+20 5e+21 
755 0 0 0 0 1e+20 5e+21 
756 0 0 0 0 1e+20 5e+21 
757 0 0 0 0 1e+20 5e+21 
758 0 0 0 0 1e+20 5e+21 
759 0 0 0 0 1e+20 5e+21 
760 0 0 0 0 1e+20 5e+21 
761 0 0 0 0 1e+20 5e+21 
762 0 0 0 0 1e+20 5e+21 
763 0 0 0 0 1e+20 5e+21 
764 0 0 0 0 1e+20 5e+21 
765 0 0 0 0 1e+20 5e+21 
766 0 0 0 0 1e+20 5e+21 
767 0 0 0 0 1e+20 5e+21 
768 0 0 0 0 1e+20 5e+21 
769 0 0 0 0 1e+20 5e+21 
770 0 0 0 0 1e+20 5e+21 
771 0 0 0 0 1e+20 5e+21 
772 0 0 0 0 1e+20 5e+21 
773 0 0 0 0 1e+20 5e+21 
774 0 0 0 0 1e+20 5e+21 
775 0 0 0 0 1e+20 5e+21 
776 0 0 0 0 1e+20 5e+21 
777 0 0 0 0 1e+20 5e+21 
778 0 0 0 0 1e+20 5e+21 
779 0 0 0 0 1e+20 5e+21 
780 0 0 0 0 1e+20 5e+21 
781 0 0 0 0 1e+20 5e+21 
782 0 0 0 0 1e+20 5e+21 
783 0 0 0 0 1e+20 5e+21 
784 0 0 0 0 1e+20 5e+21 
785 0 0 0 0 1e+20 5e+21 
786 0 0 0 0 1e+20 5e+21 
787 0 0 0 0 1e+20 5e+21 
788 0 0 0 0 1e+20 5e+21 
789 0 0 0 0 1e+20 5e+21 
790 0 0 0 0 1e+20 5e+21 
791 0 0 0 0 1e+20 5e+21 
792 0 0 0 0 1e+20 5e+21 
793 0 0 0 0 1e+20 5e+21 
794 0 0 0 0 1e+20 5e+21 
795 0 0 0 0 1e+20 5e+21 
796 0 0 0 0 1e+20 5e+21 
797 0 0 0 0 1e+20 5e+21 
798 0 0 0 0 1e+20 5e+21 
799 0 0 0 0 1e+20 5e+21 
800 0 0 0 0 1e+20 5e+21 
801 0 0 0 0 1e+20 5e+21 
802 0 0 0 0 1e+20 5e+21 
803 0 0 0 0 1e+20 5e+21 
804 0 0 0 0 1e+20 5e+21 
805 0 0 0 0 1e+20 5e+21 
806 0 0 0 0 1e+20 5e+21 
807 0 0 0 0 1e+20 5e+21 
808 0 0 0 0 1e+20 5e+21 
809 0 0 0 0 1e+20 5e+21 
810 0 0 0 0 1e+20 5e+21 
811 0 0 0 0 1e+20 5e+21 
812 0 0 0 0 1e+20 5e+21 
813 0 0 0 0 1e+20 5e+21 
814 0 0 0 0 1e+20 5e+21 
815 0 0 0 0 1e+20 5e+21 
816 0 0 0 0 1e+20 5e+21 
817 0 0 0 0 1e+20 5e+21 
818 0 0 0 0 1e+20 5e+21 
819 0 0 0 0 1e+20 5e+21 
820 0 0 0 0 1e+20 5e+21 
821 0 0 0 0 1e+20 5e+21 
822 0 0 0 0 1e+20 5e+21 
823 0 0 0 0 1e+20 5e+21 
824 0 0 0 0 1e+20 5e+21 
825 0 0 0 0 1e+20 5e+21 
826 0 0 0 0 1e+20 5e+21 
827 0 0 0 0 1e+20 5e+21 
828 0 0 0 0 1e+20 5e+21 
829 0 0 0 0 1e+20 5e+21 
830 0 0 0 0 1e+20 5e+21 
831 0 0 0 0 1e+20 5e+21 
832 0 0 0 0 1e+20 5e+21 
833 0 0 0 0 1e+20 5e+21 
834 0 0 0 0 1e+20 5e+21 
835 0 0 0 0 1e+20 5e+21 
836 0 0 0 0 1e+20 5e+21 
837 0 0 0 0 1e+20 5e+21 
838 0 0 0 0 1e+20 5e+21 
839 0 0 0 0 1e+20 5e+21 
840 0 0 0 0 1e+20 5e+21 
841 0 0 0 0 1e+20 5e+21 
842 0 0 0 0 1e+20 5e+21 
843 0 0 0 0 1e+20 5e+21 
844 0 0 0 0 1e+20 5e+21 
845 0 0 0 0 1e+20 5e+21 
846 0 0 0 0 1e+20 5e+21 
847 0 0 0 0 1e+20 5e+21 
848 0 0 0 0 1e+20 5e+21 
849 0 0 0 0 1e+20 5e+21 
850 0 0 0 0 1e+20 5e+21 
851 0 0 0 0 1e+20 5e+21 
852 0 0 0 0 1e+20 5e+21 
853 0 0 0 0 1e+20 5e+21 
854 0 0 0 0 1e+20 5e+21 
855 0 0 0 0 1e+20 5e+21 
856 0 0 0 0 1e+20 5e+21 
857 0 0 0 0 1e+20 5e+21 
858 0 0 0 0 1e+20 5e+21 
859 0 0 0 0 1e+20 5e+21 
860 0 0 0 0 1e+20 5e+21 
861 0 0 0 0 1e+20 5e+21 
862 0 0 0 0 1e+20 5e+21 
863 0 0 0 0 1e+20 5e+21 
864 0 0 0 0 1e+20 5e+21 
865 0 0 0 0 1e+20 5e+21 
866 0 0 0 0 1e+20 5e+21 
867 0 0 0 0 1e+20 5e+21 
868 0 0 0 0 1e+20 5e+21 
869 0 0 0 0 1e+20 5e+21 
870 0 0 0 0 1e+20 5e+21 
871 0 0 0 0 1e+20 5e+21 
872 0 0 0 0 1e+20 5e+21 
873 0 0 0 0 1e+20 5e+21 
874 0 0 0 0 1e+20 5e+21 
875 0 0 0 0 1e+20 5e+21 
876 0 0 0 0 1e+20 5e+21 
877 0 0 0 0 1e+20 5e+21 
878 0 0 0 0 1e+20 5e+21 
879 0 0 0 0 1e+20 5e+21 
880 0 0 0 0 1e+20 5e+21 
881 0 0 0 0 1e+20 5e+21 
882 0 0 0 0 1e+20 5e+21 
883 0 0 0 0 1e+20 5e+21 
884 0 0 0 0 1e+20 5e+21 
885 0 0 0 0 1e+20 5e+21 
886 0 0 0 0 1e+20 5e+21 
887 0 0 0 0 1e+20 5e+21 
888 0 0 0 0 1e+20 5e+21 
889 0 0 0 0 1e+20 5e+21 
890 0 0 0 0 1e+20 5e+21 
891 0 0 0 0 1e+20 5e+21 
892 0 0 0 0 1e+20 5e+21 
893 0 0 0 0 1e+20 5e+21 
894 0 0 0 0 1e+20 5e+21 
895 0 0 0 0 1e+20 5e+21 
896 0 0 0 0 1e+20 5e+21 
897 0 0 0 0 1e+20 5e+21 
898 0 0 0 0 1e+20 5e+21 
899 0 0 0 0 1e+20 5e+21 
900 0 0 0 0 1e+20 5e+21 
901 0 0 0 0 1e+20 5e+21 
902 0 0 0 0 1e+20 5e+21 
903 0 0 0 0 1e+20 5e+21 
904 0 0 0 0 1e+20 5e+21 
905 0 0 0 0 1e+20 5e+21 
906 0 0 0 0 1e+20 5e+21 
907 0 0 0 0 1e+20 5e+21 
908 0 0 0 0 1e+20 5e+21 
909 0 0 0 0 1e+20 5e+21 
910 0 0 0 0 1e+20 5e+21 
911 0 0 0 0 1e+20 5e+21 
912 0 0 0 0 1e+20 5e+21 
913 0 0 0 0 1e+20 5e+21 
914 0 0 0 0 1e+20 5e+21 
915 0 0 0 0 1e+20 5e+21 
916 0 0 0 0 1e+20 5e+21 
917 0 0 0 0 1e+20 5e+21 
918 0 0 0 0 1e+20 5e+21 
919 0 0 0 0 1e+20 5e+21 
920 0 0 0 0 1e+20 5e+21 
921 0 0 0 0 1e+20 5e+21 
922 0 0 0 0 1e+20 5e+21 
923 0 0 0 0 1e+20 5e+21 
924 0 0 0 0 1e+20 5e+21 
925 0 0 0 0 1e+20 5e+21 
926 0 0 0 0 1e+20 5e+21 
927 0 0 0 0 1e+20 5e+21 
928 0 0 0 0 1e+20 5e+21 
929 0 0 0 0 1e+20 5e+21 
930 0 0 0 0 1e+20 5e+21 
931 0 0 0 0 1e+20 5e+21 
932 0 0 0 0 1e+20 5e+21 
933 0 0 0 0 1e+20 5e+21 
934 0 0 0 0 1e+20 5e+21 
935 0 0 0 0 1e+20 5e+21 
936 0 0 0 0 1e+20 5e+21 
937 0 0 0 0 1e+20 5e+21 
938 0 0 0 0 1e+20 5e+21 
939 0 0 0 0 1e+20 5e+21 
940 0 0 0 0 1e+20 5e+21 
941 0 0 0 0 1e+20 5e+21 
942 0 0 0 0 1e+20 5e+21 
943 0 0 0 0 1e+20 5e+21 
944 0 0 0 0 1e+20 5e+21 
945 0 0 0 0 1e+20 5e+21 
946 0 0 0 0 1e+20 5e+21 
947 0 0 0 0 1e+20 5e+21 
948 0 0 0 0 1e+20 5e+21 
949 0 0 0 0 1e+20 5e+21 
950 0 0 0 0 1e+20 5e+21 
951 0 0 0 0 1e+20 5e+21 
952 0 0 0 0 1e+20 5e+21 
953 0 0 0 0 1e+20 5e+21 
954 0 0 0 0 1e+20 5e+21 
955 0 0 0 0 1e+20 5e+21 
956 0 0 0 0 1e+20 5e+21 
957 0 0 0 0 1e+20 5e+21 
958 0 0 0 0 1e+20 5e+21 
959 0 0 0 0 1e+20 5e+21 
960 0 0 0 0 1e+20 5e+21 
961 0 0 0 0 1e+20 5e+21 
962 0 0 0 0 1e+20 5e+21 
963 0 0 0 0 1e+20 5e+21 
964 0 0 0 0 1e+20 5e+21 
965 0 0 0 0 1e+20 5e+21 
966 0 0 0 0 1e+20 5e+21 
967 0 0 0 0 1e+20 5e+21 
968 0 0 0 0 1e+20 5e+21 
969 0 0 0 0 1e+20 5e+21 
970 0 0 0 0 1e+20 5e+21 
971 0 0 0 0 1e+20 5e+21 
972 0 0 0 0 1e+20 5e+21 
973 0 0 0 0 1e+20 5e+21 
974 0 0 0 0 1e+20 5e+21 
975 0 0 0 0 1e+20 5e+21 
976 0 0 0 0 1e+20 5e+21 
977 0 0 0 0 1e+20 5e+21 
978 0 0 0 0 1e+20 5e+21 
979 0 0 0 0 1e+20 5e+21 
980 0 0 0 0 1e+20 5e+21 
981 0 0 0 0 1e+20 5e+21 
982 0 0 0 0 1e+20 5e+21 
983 0 0 0 0 1e+20 5e+21 
984 0 0 0 0 1e+20 5e+21 
985 0 0 0 0 1e+20 5e+21 
986 0 0 0 0 1e+20 5e+21 
987 0 0 0 0 1e+20 5e+21 
988 0 0 0 0 1e+20 5e+21 
989 0 0 0 0 1e+20 5e+21 
990 0 0 0 0 1e+20 5e+21 
991 0 0 0 0 1e+20 5e+21 
992 0 0 0 0 1e+20 5e+21 
993 0 0 0 0 1e+20 5e+21 
994 0 0 0 0 1e+20 5e+21 
995 0 0 0 0 1e+20 5e+21 
996 0 0 0 0 1e+20 5e+21 
997 0 0 0 0 1e+20 5e+21 
998 0 0 0 0 1e+20 5e+21 
999 0 0 0 0 1e+20 5e+21 
1000 0 0 0 0 1e+20 5e+21 
1001 0 0 0 0 1e+20 5e+21 
1002 0 0 0 0 1e+20 5e+21 
1003 0 0 0 0 1e+20 5e+21 
1004 0 0 0 0 1e+20 5e+21 
1005 0 0 0 0 1e+20 5e+21 
1006 0 0 0 0 1e+20 5e+21 
1007 0 0 0 0 1e+20 5e+21 
1008 0 0 0 0 1e+20 5e+21 
1009 0 0 0 0 1e+20 5e+21 
1010 0 0 0 0 1e+20 5e+21 
1011 0 0 0 0 1e+20 5e+21 
1012 0 0 0 0 1e+20 5e+21 
1013 0 0 0 0 1e+20 5e+21 
1014 0 0 0 0 1e+20 5e+21 
1015 0 0 0 0 1e+20 5e+21 
1016 0 0 0 0 1e+20 5e+21 
1017 0 0 0 0 1e+20 5e+21 
1018 0 0 0 0 1e+20 5e+21 
1019 0 0 0 0 1e+20 5e+21 
1020 0 0 0 0 1e+20 5e+21 
1021 0 0 0 0 1e+20 5e+21 
1022 0 0 0 0 1e+20 5e+21 
1023 0 0 0 0 1e+20 5e+21 
1024 0 0 0 0 1e+20 5e+21 
1025 0 0 0 0 1e+20 5e+21 
1026 0 0 0 0 1e+20 5e+21 
1027 0 0 0 0 1e+20 5e+21 
1028 0 0 0 0 1e+20 5e+21 
1029 0 0 0 0 1e+20 5e+21 
1030 0 0 0 0 1e+20 5e+21 
1031 0 0 0 0 1e+20 5e+21 
1032 0 0 0 0 1e+20 5e+21 
1033 0 0 0 0 1e+20 5e+21 
1034 0 0 0 0 1e+20 5e+21 
1035 0 0 0 0 1e+20 5e+21 
1036 0 0 0 0 1e+20 5e+21 
1037 0 0 0 0 1e+20 5e+21 
1038 0 0 0 0 1e+20 5e+21 
1039 0 0 0 0 1e+20 5e+21 
1040 0 0 0 0 1e+20 5e+21 
1041 0 0 0 0 1e+20 5e+21 
1042 0 0 0 0 1e+20 5e+21 
1043 0 0 0 0 1e+20 5e+21 
1044 0 0 0 0 1e+20 5e+21 
1045 0 0 0 0 1e+20 5e+21 
1046 0 0 0 0 1e+20 5e+21 
1047 0 0 0 0 1e+20 5e+21 
1048 0 0 0 0 1e+20 5e+21 
1049 0 0 0 0 1e+20 5e+21 
1050 0 0 0 0 1e+20 5e+21 
1051 0 0 0 0 1e+20 5e+21 
1052 0 0 0 0 1e+20 5e+21 
1053 0 0 0 0 1e+20 5e+21 
1054 0 0 0 0 1e+20 5e+21 
1055 0 0 0 0 1e+20 5e+21 
1056 0 0 0 0 1e+20 5e+21 
1057 0 0 0 0 1e+20 5e+21 
1058 0 0 0 0 1e+20 5e+21 
1059 0 0 0 0 1e+20 5e+21 
1060 0 0 0 0 1e+20 5e+21 
1061 0 0 0 0 1e+20 5e+21 
1062 0 0 0 0 1e+20 5e+21 
1063 0 0 0 0 1e+20 5e+21 
1064 0 0 0 0 1e+20 5e+21 
1065 0 0 0 0 1e+20 5e+21 
1066 0 0 0 0 1e+20 5e+21 
1067 0 0 0 0 1e+20 5e+21 
1068 0 0 0 0 1e+20 5e+21 
1069 0 0 0 0 1e+20 5e+21 
1070 0 0 0 0 1e+20 5e+21 
1071 0 0 0 0 1e+20 5e+21 
1072 0 0 0 0 1e+20 5e+21 
1073 0 0 0 0 1e+20 5e+21 
1074 0 0 0 0 1e+20 5e+21 
1075 0 0 0 0 1e+20 5e+21 
1076 0 0 0 0 1e+20 5e+21 
1077 0 0 0 0 1e+20 5e+21 
1078 0 0 0 0 1e+20 5e+21 
1079 0 0 0 0 1e+20 5e+21 
1080 0 0 0 0 1e+20 5e+21 
1081 0 0 0 0 1e+20 5e+21 
1082 0 0 0 0 1e+20 5e+21 
1083 0 0 0 0 1e+20 5e+21 
1084 0 0 0 0 1e+20 5e+21 
1085 0 0 0 0 1e+20 5e+21 
1086 0 0 0 0 1e+20 5e+21 
1087 0 0 0 0 1e+20 5e+21 
1088 0 0 0 0 1e+20 5e+21 
1089 0 0 0 0 1e+20 5e+21 
1090 0 0 0 0 1e+20 5e+21 
1091 0 0 0 0 1e+20 5e+21 
1092 0 0 0 0 1e+20 5e+21 
1093 0 0 0 0 1e+20 5e+21 
1094 0 0 0 0 1e+20 5e+21 
1095 0 0 0 0 1e+20 5e+21 
1096 0 0 0 0 1e+20 5e+21 
1097 0 0 0 0 1e+20 5e+21 
1098 0 0 0 0 1e+20 5e+21 
1099 0 0 0 0 1e+20 5e+21 
1100 0 0 0 0 1e+20 5e+21 
1101 0 0 0 0 1e+20 5e+21 
1102 0 0 0 0 1e+20 5e+21 
1103 0 0 0 0 1e+20 5e+21 
1104 0 0 0 0 1e+20 5e+21 
1105 0 0 0 0 1e+20 5e+21 
1106 0 0 0 0 1e+20 5e+21 
1107 0 0 0 0 1e+20 5e+21 
1108 0 0 0 0 1e+20 5e+21 
1109 0 0 0 0 1e+20 5e+21 
1110 0 0 0 0 1e+20 5e+21 
1111 0 0 0 0 1e+20 5e+21 
1112 0 0 0 0 1e+20 5e+21 
1113 0 0 0 0 1e+20 5e+21 
1114 0 0 0 0 1e+20 5e+21 
1115 0 0 0 0 1e+20 5e+21 
1116 0 0 0 0 1e+20 5e+21 
1117 0 0 0 0 1e+20 5e+21 
1118 0 0 0 0 1e+20 5e+21 
1119 0 0 0 0 1e+20 5e+21 
1120 0 0 0 0 1e+20 5e+21 
1121 0 0 0 0 1e+20 5e+21 
1122 0 0 0 0 1e+20 5e+21 
1123 0 0 0 0 1e+20 5e+21 
1124 0 0 0 0 1e+20 5e+21 
1125 0 0 0 0 1e+20 5e+21 
1126 0 0 0 0 1e+20 5e+21 
1127 0 0 0 0 1e+20 5e+21 
1128 0 0 0 0 1e+20 5e+21 
1129 0 0 0 0 1e+20 5e+21 
1130 0 0 0 0 1e+20 5e+21 
1131 0 0 0 0 1e+20 5e+21 
1132 0 0 0 0 1e+20 5e+21 
1133 0 0 0 0 1e+20 5e+21 
1134 0 0 0 0 1e+20 5e+21 
1135 0 0 0 0 1e+20 5e+21 
1136 0 0 0 0 1e+20 5e+21 
1137 0 0 0 0 1e+20 5e+21 
1138 0 0 0 0 1e+20 5e+21 
1139 0 0 0 0 1e+20 5e+21 
1140 0 0 0 0 1e+20 5e+21 
1141 0 0 0 0 1e+20 5e+21 
1142 0 0 0 0 1e+20 5e+21 
1143 0 0 0 0 1e+20 5e+21 
1144 0 0 0 0 1e+20 5e+21 
1145 0 0 0 0 1e+20 5e+21 
1146 0 0 0 0 1e+20 5e+21 
1147 0 0 0 0 1e+20 5e+21 
1148 0 0 0 0 1e+20 5e+21 
1149 0 0 0 0 1e+20 5e+21 
1150 0 0 0 0 1e+20 5e+21 
1151 0 0 0 0 1e+20 5e+21 
1152 0 0 0 0 1e+20 5e+21 
1153 0 0 0 0 1e+20 5e+21 
1154 0 0 0 0 1e+20 5e+21 
1155 0 0 0 0 1e+20 5e+21 
1156 0 0 0 0 1e+20 5e+21 
1157 0 0 0 0 1e+20 5e+21 
1158 0 0 0 0 1e+20 5e+21 
1159 0 0 0 0 1e+20 5e+21 
1160 0 0 0 0 1e+20 5e+21 
1161 0 0 0 0 1e+20 5e+21 
1162 0 0 0 0 1e+20 5e+21 
1163 0 0 0 0 1e+20 5e+21 
1164 0 0 0 0 1e+20 5e+21 
1165 0 0 0 0 1e+20 5e+21 
1166 0 0 0 0 1e+20 5e+21 
1167 0 0 0 0 1e+20 5e+21 
1168 0 0 0 0 1e+20 5e+21 
1169 0 0 0 0 1e+20 5e+21 
1170 0 0 0 0 1e+20 5e+21 
1171 0 0 0 0 1e+20 5e+21 
1172 0 0 0 0 1e+20 5e+21 
1173 0 0 0 0 1e+20 5e+21 
1174 0 0 0 0 1e+20 5e+21 
1175 0 0 0 0 1e+20 5e+21 
1176 0 0 0 0 1e+20 5e+21 
1177 0 0 0 0 1e+20 5e+21 
1178 0 0 0 0 1e+20 5e+21 
1179 0 0 0 0 1e+20 5e+21 
1180 0 0 0 0 1e+20 5e+21 
1181 0 0 0 0 1e+20 5e+21 
1182 0 0 0 0 1e+20 5e+21 
1183 0 0 0 0 1e+20 5e+21 
1184 0 0 0 0 1e+20 5e+21 
1185 0 0 0 0 1e+20 5e+21 
1186 0 0 0 0 1e+20 5e+21 
1187 0 0 0 0 1e+20 5e+21 
1188 0 0 0 0 1e+20 5e+21 
1189 0 0 0 0 1e+20 5e+21 
1190 0 0 0 0 1e+20 5e+21 