ITEM: TIMESTEP
10000
ITEM: NUMBER OF CELLS
2500
ITEM: BOX BOUNDS oo rr pp
0 1.5
0 0.5
-0.5 0.5
ITEM: CELLS id f_1[1] f_1[6] f_5[1] f_5[2] c_3[1] c_3[2] 
1 1.1881e+21 0 202.53 3.32221 0.00105791 0.0528953 
2 1.0056e+21 0 290.447 4.03251 0.0013977 0.0698849 
3 1.6655e+21 0 184.436 4.24104 0.000733087 0.0366543 
4 1.8669e+21 0 276.354 7.12311 0.000741347 0.0370673 
5 1.8238e+21 0 249.373 6.27929 0.00073508 0.036754 
6 1.1326e+21 0 273.406 4.27532 0.00121793 0.0608965 
7 1.7102e+21 0 286.606 6.76731 0.000818464 0.0409232 
8 1.5375e+21 0 164.812 3.49854 0.000766901 0.038345 
9 1.4859e+21 0 180.451 3.70196 0.00081615 0.0408075 
10 1.453e+21 0 196.373 3.93941 0.000856797 0.0428398 
11 1.5196e+21 0 128.236 2.69043 0.000717863 0.0358932 
12 1.5759e+21 0 177.51 3.86219 0.000765629 0.0382814 
13 1.6814e+21 0 2080.61 48.2997 0.00153906 0.0769531 
14 8.3448e+21 0 1645.13 189.54 0.000288333 0.0144166 
15 0 0 0 0 1e+20 5e+21 
16 0 0 0 0 1e+20 5e+21 
17 0 0 0 0 1e+20 5e+21 
18 0 0 0 0 1e+20 5e+21 
19 0 0 0 0 1e+20 5e+21 
20 0 0 0 0 1e+20 5e+21 
21 0 0 0 0 1e+20 5e+21 
22 0 0 0 0 1e+20 5e+21 
23 0 0 0 0 1e+20 5e+21 
24 0 0 0 0 1e+20 5e+21 
25 0 0 0 0 1e+20 5e+21 
26 0 0 0 0 1e+20 5e+21 
27 0 0 0 0 1e+20 5e+21 
28 0 0 0 0 1e+20 5e+21 
29 0 0 0 0 1e+20 5e+21 
30 0 0 0 0 1e+20 5e+21 
31 0 0 0 0 1e+20 5e+21 
32 0 0 0 0 1e+20 5e+21 
33 0 0 0 0 1e+20 5e+21 
34 0 0 0 0 1e+20 5e+21 
35 0 0 0 0 1e+20 5e+21 
36 0 0 0 0 1e+20 5e+21 
37 0 0 0 0 1e+20 5e+21 
38 0 0 0 0 1e+20 5e+21 
39 0 0 0 0 1e+20 5e+21 
40 0 0 0 0 1e+20 5e+21 
41 0 0 0 0 1e+20 5e+21 
42 2.151e+20 0 75.545 0.224352 0.00430419 0.215209 
43 2.0134e+21 0 227.389 6.32095 0.000647077 0.0323539 
44 1.2442e+21 0 307.06 5.27469 0.00114931 0.0574655 
45 6.697e+20 0 217.48 2.01087 0.0019187 0.0959352 
46 1.4677e+21 0 142.727 2.89218 0.000768329 0.0384165 
47 1.5962e+21 0 170.554 3.75867 0.000746583 0.0373292 
48 1.3151e+21 0 258.35 4.69084 0.00103066 0.0515328 
49 1.2955e+21 0 276.02 4.93699 0.00106793 0.0533965 
50 1.5484e+21 0 359.577 7.68703 0.000969841 0.048492 
51 1.7061e+21 0 156.119 3.67742 0.000679602 0.0339801 
52 1.7116e+21 0 208.477 4.92657 0.000740959 0.0370479 
53 1.2934e+21 0 331.266 5.91552 0.0011319 0.0565952 
54 1.3345e+21 0 634.11 11.6833 0.00134165 0.0670827 
55 1.6714e+21 0 333.362 7.69273 0.000877631 0.0438815 
56 1.7899e+21 0 195.504 4.83135 0.000694573 0.0347286 
57 1.7873e+21 0 296.269 7.31082 0.000791249 0.0395624 
58 2.4796e+21 0 359.125 12.2945 0.000605386 0.0302693 
59 1.8883e+21 0 409.543 10.6771 0.000827999 0.0414 
60 1.9077e+21 0 252.318 6.6457 0.000705313 0.0352656 
61 1.5658e+21 0 209.643 4.53211 0.000811355 0.0405678 
62 2.1613e+21 0 190.099 5.67256 0.000570239 0.028512 
63 2.7683e+21 0 1166.23 44.5741 0.000781229 0.0390615 
64 8.7825e+21 0 1527.77 185.251 0.000267749 0.0133875 
65 0 0 0 0 1e+20 5e+21 
66 0 0 0 0 1e+20 5e+21 
67 0 0 0 0 1e+20 5e+21 
68 0 0 0 0 1e+20 5e+21 
69 0 0 0 0 1e+20 5e+21 
70 0 0 0 0 1e+20 5e+21 
71 0 0 0 0 1e+20 5e+21 
72 0 0 0 0 1e+20 5e+21 
73 0 0 0 0 1e+20 5e+21 
74 0 0 0 0 1e+20 5e+21 
75 0 0 0 0 1e+20 5e+21 
76 0 0 0 0 1e+20 5e+21 
77 0 0 0 0 1e+20 5e+21 
78 0 0 0 0 1e+20 5e+21 
79 0 0 0 0 1e+20 5e+21 
80 0 0 0 0 1e+20 5e+21 
81 0 0 0 0 1e+20 5e+21 
82 0 0 0 0 1e+20 5e+21 
83 0 0 0 0 1e+20 5e+21 
84 0 0 0 0 1e+20 5e+21 
85 0 0 0 0 1e+20 5e+21 
86 0 0 0 0 1e+20 5e+21 
87 0 0 0 0 1e+20 5e+21 
88 0 0 0 0 1e+20 5e+21 
89 0 0 0 0 1e+20 5e+21 
90 0 0 0 0 1e+20 5e+21 
91 0 0 0 0 1e+20 5e+21 
92 1.9e+19 0 -1.01807e-11 -2.67062e-15 -nan -nan 
93 5.629e+20 0 21.8056 0.169466 0.00111896 0.0559478 
94 1.4091e+21 0 339.636 6.60752 0.00104703 0.0523517 
95 2.3174e+21 0 190.647 6.09977 0.000532302 0.0266151 
96 1.6319e+21 0 115.797 2.609 0.00064765 0.0323825 
97 1.1651e+21 0 122.157 1.96501 0.000922295 0.0461147 
98 2.0673e+21 0 197.613 5.64031 0.000603375 0.0301688 
99 2.4476e+21 0 335.488 11.3371 0.000600493 0.0300246 
100 1.4806e+21 0 364.385 7.44871 0.00101844 0.0509218 
101 1.6388e+21 0 402.652 9.11043 0.000949053 0.0474526 
102 1.034e+21 0 183.88 2.62506 0.00117971 0.0589853 
103 1.132e+21 0 173.255 2.7078 0.00105788 0.0528938 
104 1.2702e+21 0 361.855 6.34585 0.00118457 0.0592286 
105 8.205e+20 0 424.374 4.8074 0.00192669 0.0963344 
106 1.0192e+21 0 346.612 4.87737 0.00145673 0.0728367 
107 1.1314e+21 0 182.944 2.85771 0.00107644 0.0538221 
108 1.6598e+21 0 195.192 4.47302 0.000748644 0.0374322 
109 1.3128e+21 0 249.902 4.52952 0.00102188 0.0510938 
110 1.589e+21 0 382.009 8.38071 0.000962957 0.0481479 
111 1.6697e+21 0 209.017 4.8184 0.000760161 0.0380081 
112 1.4476e+21 0 222.222 4.44139 0.000893601 0.04468 
113 1.6775e+21 0 2219.96 51.4152 0.00157396 0.0786978 
114 7.458e+21 0 1040 107.088 0.000279863 0.0139932 
115 0 0 0 0 1e+20 5e+21 
116 0 0 0 0 1e+20 5e+21 
117 0 0 0 0 1e+20 5e+21 
118 0 0 0 0 1e+20 5e+21 
119 0 0 0 0 1e+20 5e+21 
120 0 0 0 0 1e+20 5e+21 
121 0 0 0 0 1e+20 5e+21 
122 0 0 0 0 1e+20 5e+21 
123 0 0 0 0 1e+20 5e+21 
124 0 0 0 0 1e+20 5e+21 
125 0 0 0 0 1e+20 5e+21 
126 0 0 0 0 1e+20 5e+21 
127 0 0 0 0 1e+20 5e+21 
128 0 0 0 0 1e+20 5e+21 
129 0 0 0 0 1e+20 5e+21 
130 0 0 0 0 1e+20 5e+21 
131 0 0 0 0 1e+20 5e+21 
132 0 0 0 0 1e+20 5e+21 
133 0 0 0 0 1e+20 5e+21 
134 0 0 0 0 1e+20 5e+21 
135 0 0 0 0 1e+20 5e+21 
136 0 0 0 0 1e+20 5e+21 
137 0 0 0 0 1e+20 5e+21 
138 0 0 0 0 1e+20 5e+21 
139 0 0 0 0 1e+20 5e+21 
140 0 0 0 0 1e+20 5e+21 
141 0 0 0 0 1e+20 5e+21 
142 4.651e+20 0 345.783 2.22041 0.00318985 0.159493 
143 2.0931e+21 0 258.245 7.46286 0.000647483 0.0323741 
144 1.751e+21 0 402.741 9.73632 0.0008883 0.044415 
145 7.274e+20 0 100.459 1.0089 0.00139037 0.0695187 
146 1.4413e+21 0 162.978 3.24314 0.000815255 0.0407627 
147 1.634e+21 0 160.048 3.61064 0.000715078 0.0357539 
148 1.9595e+21 0 385.586 10.4316 0.000783141 0.0391571 
149 1.5535e+21 0 333.14 7.14531 0.000944041 0.0472021 
150 1.6331e+21 0 323.629 7.29698 0.00089 0.0445 
151 4.698e+20 0 175.023 1.13525 0.00255702 0.127851 
152 5.405e+20 0 529.967 3.95483 0.00313335 0.156668 
153 7.811e+20 0 278.356 3.00187 0.00177586 0.0887928 
154 1.5162e+21 0 124.738 2.61119 0.000713331 0.0356665 
155 2.5976e+21 0 306.367 10.9875 0.000550112 0.0275056 
156 1.4989e+21 0 212.361 4.39472 0.000850959 0.042548 
157 1.4165e+21 0 190.446 3.72452 0.000870563 0.0435282 
158 5.988e+20 0 107.847 0.891605 0.00172654 0.086327 
159 1.201e+21 0 316.483 5.2478 0.00120186 0.060093 
160 1.6528e+21 0 256.781 5.85958 0.000818526 0.0409263 
161 1.3571e+21 0 181.238 3.39582 0.000894815 0.0447408 
162 1.9919e+21 0 140.41 3.86143 0.000563266 0.0281633 
163 3.1061e+21 0 2286.55 98.0573 0.000857865 0.0428932 
164 1.25262e+22 0 1029.08 177.973 0.000166084 0.00830421 
165 0 0 0 0 1e+20 5e+21 
166 0 0 0 0 1e+20 5e+21 
167 0 0 0 0 1e+20 5e+21 
168 0 0 0 0 1e+20 5e+21 
169 0 0 0 0 1e+20 5e+21 
170 0 0 0 0 1e+20 5e+21 
171 0 0 0 0 1e+20 5e+21 
172 0 0 0 0 1e+20 5e+21 
173 0 0 0 0 1e+20 5e+21 
174 0 0 0 0 1e+20 5e+21 
175 0 0 0 0 1e+20 5e+21 
176 0 0 0 0 1e+20 5e+21 
177 0 0 0 0 1e+20 5e+21 
178 0 0 0 0 1e+20 5e+21 
179 0 0 0 0 1e+20 5e+21 
180 0 0 0 0 1e+20 5e+21 
181 0 0 0 0 1e+20 5e+21 
182 0 0 0 0 1e+20 5e+21 
183 0 0 0 0 1e+20 5e+21 
184 0 0 0 0 1e+20 5e+21 
185 0 0 0 0 1e+20 5e+21 
186 0 0 0 0 1e+20 5e+21 
187 0 0 0 0 1e+20 5e+21 
188 0 0 0 0 1e+20 5e+21 
189 0 0 0 0 1e+20 5e+21 
190 0 0 0 0 1e+20 5e+21 
191 0 0 0 0 1e+20 5e+21 
192 0 0 0 0 1e+20 5e+21 
193 5.967e+20 0 302.557 2.49257 0.00238552 0.119276 
194 1.4505e+21 0 230.047 4.60699 0.000901433 0.0450717 
195 1.1481e+21 0 114.42 1.8137 0.000917158 0.0458579 
196 6.217e+20 0 100.651 0.863939 0.00162772 0.0813862 
197 1.0891e+21 0 171.961 2.58571 0.00109699 0.0548496 
198 9.287e+20 0 182.868 2.34475 0.00131122 0.0655609 
199 9.404e+20 0 51.2545 0.665469 0.000872956 0.0436478 
200 1.3431e+21 0 103.928 1.9272 0.00076097 0.0380485 
201 1.1139e+21 0 191.151 2.93972 0.00110833 0.0554164 
202 1.503e+21 0 352.211 7.30878 0.000992745 0.0496373 
203 2.0266e+21 0 298.106 8.34107 0.000699157 0.0349579 
204 1.1213e+21 0 200.511 3.10415 0.00111745 0.0558726 
205 8.753e+20 0 439.848 5.31548 0.00182623 0.0913114 
206 2.4352e+21 0 143.262 4.81668 0.000463611 0.0231805 
207 1.3942e+21 0 257.612 4.95877 0.00097132 0.048566 
208 2.28e+21 0 428.361 13.4843 0.000695367 0.0347684 
209 2.0214e+21 0 271.75 7.58413 0.000681128 0.0340564 
210 2.0532e+21 0 321.291 9.10778 0.00070631 0.0353155 
211 7.661e+20 0 279.653 2.95793 0.00181324 0.0906619 
212 1.7374e+21 0 330.499 7.9278 0.000842036 0.0421018 
213 2.504e+21 0 1749.31 60.4761 0.00097936 0.048968 
214 5.0757e+21 0 1078.83 75.6017 0.000415918 0.0207959 
215 0 0 0 0 1e+20 5e+21 
216 0 0 0 0 1e+20 5e+21 
217 0 0 0 0 1e+20 5e+21 
218 0 0 0 0 1e+20 5e+21 
219 0 0 0 0 1e+20 5e+21 
220 0 0 0 0 1e+20 5e+21 
221 0 0 0 0 1e+20 5e+21 
222 0 0 0 0 1e+20 5e+21 
223 0 0 0 0 1e+20 5e+21 
224 0 0 0 0 1e+20 5e+21 
225 0 0 0 0 1e+20 5e+21 
226 0 0 0 0 1e+20 5e+21 
227 0 0 0 0 1e+20 5e+21 
228 0 0 0 0 1e+20 5e+21 
229 0 0 0 0 1e+20 5e+21 
230 0 0 0 0 1e+20 5e+21 
231 0 0 0 0 1e+20 5e+21 
232 0 0 0 0 1e+20 5e+21 
233 0 0 0 0 1e+20 5e+21 
234 0 0 0 0 1e+20 5e+21 
235 0 0 0 0 1e+20 5e+21 
236 0 0 0 0 1e+20 5e+21 
237 0 0 0 0 1e+20 5e+21 
238 0 0 0 0 1e+20 5e+21 
239 0 0 0 0 1e+20 5e+21 
240 0 0 0 0 1e+20 5e+21 
241 0 0 0 0 1e+20 5e+21 
242 0 0 0 0 1e+20 5e+21 
243 5.028e+20 0 223.932 1.55452 0.00257887 0.128943 
244 1.7957e+21 0 266.813 6.6149 0.000762392 0.0381196 
245 1.1691e+21 0 152.134 2.45562 0.000983845 0.0491922 
246 1.5134e+21 0 162.252 3.39022 0.000775342 0.0387671 
247 1.3018e+21 0 138.352 2.48663 0.000857924 0.0428962 
248 1.5288e+21 0 84.2968 1.77928 0.000626526 0.0313263 
249 9.008e+20 0 340.439 4.23401 0.00163905 0.0819525 
250 1.3448e+21 0 171.019 3.1753 0.000886898 0.0443449 
251 1.8064e+21 0 198.328 4.94632 0.000691295 0.0345648 
252 1.6425e+21 0 246.872 5.59835 0.000813671 0.0406836 
253 1.7465e+21 0 147.49 3.55642 0.000652282 0.0326141 
254 1.0583e+21 0 178.602 2.60962 0.00114226 0.0571129 
255 1.0801e+21 0 200.164 2.98492 0.00115945 0.0579727 
256 1.0038e+21 0 131.165 1.81781 0.00109437 0.0547186 
257 1.2237e+21 0 237.414 4.0111 0.001079 0.0539498 
258 7.353e+20 0 336.353 3.41462 0.00200046 0.100023 
259 1.5822e+21 0 414.083 9.04549 0.000991571 0.0495785 
260 1.1358e+21 0 326.416 5.11866 0.00128308 0.0641542 
261 1.248e+21 0 223.82 3.85653 0.00103882 0.0519412 
262 1.2233e+21 0 212.766 3.59351 0.00104329 0.0521645 
263 2.206e+21 0 1827.51 55.6607 0.00112683 0.0563416 
264 7.8246e+21 0 808.517 87.3443 0.000246723 0.0123361 
265 0 0 0 0 1e+20 5e+21 
266 0 0 0 0 1e+20 5e+21 
267 0 0 0 0 1e+20 5e+21 
268 0 0 0 0 1e+20 5e+21 
269 0 0 0 0 1e+20 5e+21 
270 0 0 0 0 1e+20 5e+21 
271 0 0 0 0 1e+20 5e+21 
272 0 0 0 0 1e+20 5e+21 
273 0 0 0 0 1e+20 5e+21 
274 0 0 0 0 1e+20 5e+21 
275 0 0 0 0 1e+20 5e+21 
276 0 0 0 0 1e+20 5e+21 
277 0 0 0 0 1e+20 5e+21 
278 0 0 0 0 1e+20 5e+21 
279 0 0 0 0 1e+20 5e+21 
280 0 0 0 0 1e+20 5e+21 
281 0 0 0 0 1e+20 5e+21 
282 0 0 0 0 1e+20 5e+21 
283 0 0 0 0 1e+20 5e+21 
284 0 0 0 0 1e+20 5e+21 
285 0 0 0 0 1e+20 5e+21 
286 0 0 0 0 1e+20 5e+21 
287 0 0 0 0 1e+20 5e+21 
288 0 0 0 0 1e+20 5e+21 
289 0 0 0 0 1e+20 5e+21 
290 0 0 0 0 1e+20 5e+21 
291 0 0 0 0 1e+20 5e+21 
292 1.705e+20 0 32.195 0.0757871 0.00416848 0.208424 
293 7.234e+20 0 109.348 1.09212 0.00143529 0.0717647 
294 1.0327e+21 0 93.0072 1.32609 0.000956212 0.0478106 
295 1.7633e+21 0 203.166 4.94607 0.000713503 0.0356751 
296 1.6327e+21 0 137.457 3.09854 0.000682674 0.0341337 
297 2.0033e+21 0 207.985 5.75257 0.000632604 0.0316302 
298 1.3567e+21 0 211.238 3.95676 0.000938607 0.0469303 
299 1.2633e+21 0 309.641 5.40067 0.00113487 0.0567437 
300 2.0007e+21 0 273.518 7.55529 0.000689559 0.034478 
301 2.5517e+21 0 281.891 9.93103 0.000545737 0.0272869 
302 1.8132e+21 0 256.813 6.42904 0.000746146 0.0373073 
303 1.0736e+21 0 343.734 5.09505 0.00137935 0.0689675 
304 1.7165e+21 0 357.129 8.46354 0.000873012 0.0436506 
305 1.6604e+21 0 234.31 5.3714 0.000791974 0.0395987 
306 2.1734e+21 0 204.29 6.13014 0.000579863 0.0289931 
307 1.9209e+21 0 256.904 6.81333 0.000704389 0.0352194 
308 1.9264e+21 0 493.434 13.1238 0.000859889 0.0429945 
309 1.4218e+21 0 227.767 4.47108 0.000916793 0.0458397 
310 2.2942e+21 0 204.469 6.47652 0.000549479 0.027474 
311 2.2901e+21 0 231.303 7.3134 0.000571913 0.0285956 
312 8.049e+20 0 86.8479 0.965127 0.00120105 0.0600526 
313 1.7319e+21 0 1341.45 32.0761 0.00130411 0.0652054 
314 7.2378e+21 0 1586.46 158.533 0.000328711 0.0164356 
315 0 0 0 0 1e+20 5e+21 
316 0 0 0 0 1e+20 5e+21 
317 0 0 0 0 1e+20 5e+21 
318 0 0 0 0 1e+20 5e+21 
319 0 0 0 0 1e+20 5e+21 
320 0 0 0 0 1e+20 5e+21 
321 0 0 0 0 1e+20 5e+21 
322 0 0 0 0 1e+20 5e+21 
323 0 0 0 0 1e+20 5e+21 
324 0 0 0 0 1e+20 5e+21 
325 0 0 0 0 1e+20 5e+21 
326 0 0 0 0 1e+20 5e+21 
327 0 0 0 0 1e+20 5e+21 
328 0 0 0 0 1e+20 5e+21 
329 0 0 0 0 1e+20 5e+21 
330 0 0 0 0 1e+20 5e+21 
331 0 0 0 0 1e+20 5e+21 
332 0 0 0 0 1e+20 5e+21 
333 0 0 0 0 1e+20 5e+21 
334 0 0 0 0 1e+20 5e+21 
335 0 0 0 0 1e+20 5e+21 
336 0 0 0 0 1e+20 5e+21 
337 0 0 0 0 1e+20 5e+21 
338 0 0 0 0 1e+20 5e+21 
339 0 0 0 0 1e+20 5e+21 
340 0 0 0 0 1e+20 5e+21 
341 0 0 0 0 1e+20 5e+21 
342 1.429e+20 0 19.2874 0.038053 0.00424317 0.212159 
343 1.4444e+21 0 133.279 2.65786 0.000764323 0.0382161 
344 2.1259e+21 0 225.534 6.6197 0.000611281 0.0305641 
345 1.4956e+21 0 181.031 3.7381 0.000811663 0.0405832 
346 1.5738e+21 0 120.739 2.62349 0.000680316 0.0340158 
347 1.3418e+21 0 203.345 3.76708 0.000937892 0.0468946 
348 2.0588e+21 0 311.767 8.86191 0.000697849 0.0348924 
349 1.5872e+21 0 330.306 7.23822 0.000921554 0.0460777 
350 7.142e+20 0 433.576 4.27531 0.00222822 0.111411 
351 1.8084e+21 0 271.767 6.78539 0.000761368 0.0380684 
352 6.653e+20 0 136.641 1.25511 0.00167225 0.0836125 
353 8.639e+20 0 253.841 3.02767 0.00156041 0.0780205 
354 1.5888e+21 0 326.553 7.16319 0.00091737 0.0458685 
355 1.5936e+21 0 310.973 6.84203 0.00090085 0.0450425 
356 6.385e+20 0 189.841 1.67353 0.00192943 0.0964713 
357 3.555e+20 0 188.654 0.925954 0.00345864 0.172932 
358 2.1189e+21 0 184.413 5.39493 0.0005762 0.02881 
359 1.9004e+21 0 295.784 7.76073 0.000743781 0.0371891 
360 1.1922e+21 0 483.354 7.95606 0.00138058 0.0690289 
361 9.763e+20 0 661.212 8.91266 0.00185785 0.0928925 
362 1.4357e+21 0 529.736 10.5004 0.00117946 0.0589729 
363 2.1372e+21 0 1069.79 31.5665 0.000985202 0.0492601 
364 1.15215e+22 0 1487.71 236.653 0.000202423 0.0101212 
365 0 0 0 0 1e+20 5e+21 
366 0 0 0 0 1e+20 5e+21 
367 0 0 0 0 1e+20 5e+21 
368 0 0 0 0 1e+20 5e+21 
369 0 0 0 0 1e+20 5e+21 
370 0 0 0 0 1e+20 5e+21 
371 0 0 0 0 1e+20 5e+21 
372 0 0 0 0 1e+20 5e+21 
373 0 0 0 0 1e+20 5e+21 
374 0 0 0 0 1e+20 5e+21 
375 0 0 0 0 1e+20 5e+21 
376 0 0 0 0 1e+20 5e+21 
377 0 0 0 0 1e+20 5e+21 
378 0 0 0 0 1e+20 5e+21 
379 0 0 0 0 1e+20 5e+21 
380 0 0 0 0 1e+20 5e+21 
381 0 0 0 0 1e+20 5e+21 
382 0 0 0 0 1e+20 5e+21 
383 0 0 0 0 1e+20 5e+21 
384 0 0 0 0 1e+20 5e+21 
385 0 0 0 0 1e+20 5e+21 
386 0 0 0 0 1e+20 5e+21 
387 0 0 0 0 1e+20 5e+21 
388 0 0 0 0 1e+20 5e+21 
389 0 0 0 0 1e+20 5e+21 
390 0 0 0 0 1e+20 5e+21 
391 0 0 0 0 1e+20 5e+21 
392 2.427e+20 0 93.1171 0.31202 0.00407022 0.203511 
393 1.6122e+21 0 211.948 4.71772 0.000790679 0.039534 
394 1.1006e+21 0 187.367 2.84711 0.00111479 0.0557395 
395 2.1424e+21 0 211.368 6.25205 0.000594497 0.0297248 
396 2.1423e+21 0 264.273 7.81656 0.000637153 0.0318577 
397 1.7909e+21 0 169.187 4.18332 0.000663759 0.0331879 
398 1.0957e+21 0 135.423 2.04865 0.00101256 0.0506281 
399 1.7055e+21 0 264.544 6.2292 0.000800591 0.0400295 
400 2.1469e+21 0 312.092 9.25076 0.000669428 0.0334714 
401 9.213e+20 0 144.946 1.8437 0.00122988 0.0614938 
402 6.907e+20 0 288.337 2.74962 0.00203034 0.101517 
403 2.1624e+21 0 370.125 11.0502 0.000700713 0.0350357 
404 1.7501e+21 0 240.192 5.80369 0.000757179 0.0378589 
405 4.214e+20 0 195.881 1.13965 0.00295197 0.147598 
406 1.3552e+21 0 107.855 2.01803 0.000762896 0.0381448 
407 2.4022e+21 0 180.999 6.003 0.000505311 0.0252655 
408 1.6839e+21 0 129.085 3.00106 0.000649147 0.0324573 
409 1.0368e+21 0 253.03 3.62201 0.0012989 0.0649451 
410 1.6593e+21 0 440.299 10.0869 0.000963663 0.0481831 
411 1.3029e+21 0 499.085 8.97777 0.00127588 0.0637942 
412 2.0002e+21 0 257.262 7.10449 0.000676755 0.0338377 
413 1.4283e+21 0 2874.91 56.6928 0.00200282 0.100141 
414 1.05543e+22 0 1468.75 214.023 0.000220096 0.0110048 
415 0 0 0 0 1e+20 5e+21 
416 0 0 0 0 1e+20 5e+21 
417 0 0 0 0 1e+20 5e+21 
418 0 0 0 0 1e+20 5e+21 
419 0 0 0 0 1e+20 5e+21 
420 0 0 0 0 1e+20 5e+21 
421 0 0 0 0 1e+20 5e+21 
422 0 0 0 0 1e+20 5e+21 
423 0 0 0 0 1e+20 5e+21 
424 0 0 0 0 1e+20 5e+21 
425 0 0 0 0 1e+20 5e+21 
426 0 0 0 0 1e+20 5e+21 
427 0 0 0 0 1e+20 5e+21 
428 0 0 0 0 1e+20 5e+21 
429 0 0 0 0 1e+20 5e+21 
430 0 0 0 0 1e+20 5e+21 
431 0 0 0 0 1e+20 5e+21 
432 0 0 0 0 1e+20 5e+21 
433 0 0 0 0 1e+20 5e+21 
434 0 0 0 0 1e+20 5e+21 
435 0 0 0 0 1e+20 5e+21 
436 0 0 0 0 1e+20 5e+21 
437 0 0 0 0 1e+20 5e+21 
438 0 0 0 0 1e+20 5e+21 
439 0 0 0 0 1e+20 5e+21 
440 0 0 0 0 1e+20 5e+21 
441 0 0 0 0 1e+20 5e+21 
442 2.13e+19 0 -2.51483e-11 -7.39557e-15 -nan -nan 
443 1.0282e+21 0 257.368 3.65355 0.00131669 0.0658343 
444 1.8596e+21 0 265.528 6.8173 0.000735093 0.0367547 
445 8.348e+20 0 96.701 1.11454 0.00119726 0.0598631 
446 1.0721e+21 0 91.3578 1.35227 0.000915976 0.0457988 
447 7.611e+20 0 251.871 2.64669 0.0017669 0.088345 
448 1.5177e+21 0 144.126 3.02004 0.000745268 0.0372634 
449 1.1724e+21 0 119.346 1.93182 0.00090996 0.045498 
450 1.2387e+21 0 236.655 4.04729 0.00106487 0.0532436 
451 1.3231e+21 0 160.245 2.92725 0.000883443 0.0441721 
452 1.0066e+21 0 153.66 2.13551 0.00114621 0.0573106 
453 1.2648e+21 0 246.654 4.30718 0.00105636 0.0528182 
454 2.0395e+21 0 325.975 9.17891 0.000714252 0.0357126 
455 1.3825e+21 0 253.69 4.8423 0.000974893 0.0487446 
456 9.764e+20 0 252.981 3.41035 0.00137917 0.0689585 
457 9.898e+20 0 172.05 2.35118 0.00120724 0.060362 
458 1.3083e+21 0 264.046 4.76947 0.00104304 0.052152 
459 1.2796e+21 0 247.421 4.37113 0.00104515 0.0522575 
460 1.7437e+21 0 239.864 5.77458 0.000759636 0.0379818 
461 1.4902e+21 0 222.793 4.58383 0.000868746 0.0434373 
462 1.9685e+21 0 259.559 7.0543 0.00068955 0.0344775 
463 1.6301e+21 0 1556.36 35.0273 0.00145087 0.0725434 
464 5.2521e+21 0 877.687 63.6438 0.000377043 0.0188521 
465 0 0 0 0 1e+20 5e+21 
466 0 0 0 0 1e+20 5e+21 
467 0 0 0 0 1e+20 5e+21 
468 0 0 0 0 1e+20 5e+21 
469 0 0 0 0 1e+20 5e+21 
470 0 0 0 0 1e+20 5e+21 
471 0 0 0 0 1e+20 5e+21 
472 0 0 0 0 1e+20 5e+21 
473 0 0 0 0 1e+20 5e+21 
474 0 0 0 0 1e+20 5e+21 
475 0 0 0 0 1e+20 5e+21 
476 0 0 0 0 1e+20 5e+21 
477 0 0 0 0 1e+20 5e+21 
478 0 0 0 0 1e+20 5e+21 
479 0 0 0 0 1e+20 5e+21 
480 0 0 0 0 1e+20 5e+21 
481 0 0 0 0 1e+20 5e+21 
482 0 0 0 0 1e+20 5e+21 
483 0 0 0 0 1e+20 5e+21 
484 0 0 0 0 1e+20 5e+21 
485 0 0 0 0 1e+20 5e+21 
486 0 0 0 0 1e+20 5e+21 
487 0 0 0 0 1e+20 5e+21 
488 0 0 0 0 1e+20 5e+21 
489 0 0 0 0 1e+20 5e+21 
490 0 0 0 0 1e+20 5e+21 
491 2.36e+19 0 1.48164e-11 4.82766e-15 4.51134e-06 0.000225567 
492 3.143e+20 0 228.107 0.989841 0.00414922 0.207461 
493 1.5865e+21 0 239.693 5.25024 0.000834721 0.041736 
494 2.6805e+21 0 435.001 16.0986 0.000594298 0.0297149 
495 9.568e+20 0 240.241 3.1736 0.00138506 0.0692528 
496 1.8988e+21 0 179.599 4.70832 0.000637739 0.031887 
497 2.4069e+21 0 238.74 7.93354 0.000549524 0.0274762 
498 2.0802e+21 0 334.489 9.6066 0.000705897 0.0352948 
499 2.3416e+21 0 175.151 5.66249 0.000513137 0.0256568 
500 8.871e+20 0 160.143 1.96139 0.00131739 0.0658693 
501 1.3788e+21 0 275.881 5.25178 0.00100325 0.0501627 
502 2.0044e+21 0 337.493 9.33969 0.000734625 0.0367312 
503 1.8229e+21 0 277.044 6.97261 0.000759828 0.0379914 
504 1.8292e+21 0 202.939 5.12518 0.000687559 0.0343779 
505 1.9125e+21 0 254.953 6.73202 0.000705813 0.0352906 
506 1.1793e+21 0 223.814 3.64414 0.00109933 0.0549666 
507 1.5888e+21 0 285.84 6.27012 0.000880272 0.0440136 
508 1.2478e+21 0 308.477 5.31436 0.00114763 0.0573815 
509 1.274e+21 0 226.946 3.99186 0.00102201 0.0511005 
510 2.1088e+21 0 187.692 5.46469 0.000582132 0.0291066 
511 2.1879e+21 0 389.212 11.757 0.000703426 0.0351713 
512 1.6815e+21 0 339.139 7.87332 0.000877017 0.0438509 
513 2.3331e+21 0 1634.41 52.6476 0.00102919 0.0514596 
514 3.4831e+21 0 1565.12 75.2655 0.000680192 0.0340096 
515 1.2138e+21 0 951.064 15.9382 0.00167258 0.0836288 
516 1.0688e+21 0 710.025 10.4774 0.00173495 0.0867474 
517 1.2266e+21 0 582.541 9.86535 0.00142179 0.0710896 
518 1.0057e+21 0 669.568 9.29707 0.00181057 0.0905286 
519 2.1056e+21 0 1360.8 39.5598 0.00107743 0.0538715 
520 6.586e+20 0 633.894 5.76397 0.00271826 0.135913 
521 1.4512e+21 0 1216.97 24.3831 0.00151007 0.0755035 
522 1.9595e+21 0 779.023 21.0755 0.00097392 0.048696 
523 1.0879e+21 0 1517.15 22.7877 0.00215684 0.107842 
524 7.381e+20 0 892.84 9.09854 0.0026972 0.13486 
525 1.0376e+21 0 976.066 13.9827 0.00197241 0.0986204 
526 1.621e+21 0 762.033 17.0545 0.00116928 0.0584638 
527 1.8002e+21 0 1305 32.435 0.00124396 0.062198 
528 2.549e+21 0 1108.19 39.0004 0.00083512 0.041756 
529 8.347e+20 0 1811.71 20.8787 0.00297006 0.148503 
530 1.0589e+21 0 1501.78 21.9555 0.00220892 0.110446 
531 7.54e+20 0 1274.54 13.2681 0.00294833 0.147417 
532 9.024e+20 0 129.318 1.61117 0.001212 0.0606001 
533 2.8175e+21 0 1064.05 41.3912 0.000746074 0.0373037 
534 1.4871e+21 0 1194.99 24.5351 0.00146531 0.0732657 
535 2.427e+20 0 -9.80926e-13 -3.28692e-15 -nan -nan 
536 2.0267e+21 0 625.65 17.5067 0.000879754 0.0439877 
537 1.0934e+21 0 1825.83 27.5628 0.0022728 0.11364 
538 1.5702e+21 0 1019.4 22.0996 0.00132105 0.0660527 
539 1.6708e+21 0 1125.67 25.9669 0.00128027 0.0640135 
540 6.945e+20 0 1708.73 16.3843 0.00350545 0.175273 
541 1.1467e+21 0 460.172 7.2854 0.00141366 0.0706828 
542 7e+20 0 125.066 1.20871 0.00154633 0.0773167 
543 7.783e+20 0 163.416 1.756 0.00151099 0.0755496 
544 5.025e+20 0 171.007 1.18641 0.00237348 0.118674 
545 1.7381e+21 0 264.537 6.34811 0.000785568 0.0392784 
546 1.1286e+21 0 278.383 4.33776 0.0012291 0.061455 
547 9.753e+20 0 372.09 5.01037 0.00155615 0.0778074 
548 8.287e+20 0 435.136 4.97858 0.00192249 0.0961246 
549 3.609e+20 0 403.884 2.01246 0.00431361 0.21568 
550 1.2486e+21 0 214.025 3.68953 0.00102402 0.051201 
551 2.3623e+21 0 233.026 7.60017 0.00055571 0.0277855 
552 1.2038e+21 0 163.829 2.72288 0.000977676 0.0488838 
553 1.9562e+21 0 198.821 5.36982 0.000638849 0.0319425 
554 1.1425e+21 0 234.437 3.69799 0.00115117 0.0575586 
555 1.6885e+21 0 260.412 6.0708 0.000804715 0.0402357 
556 1.4673e+21 0 286.032 5.79451 0.000953361 0.0476681 
557 1.3054e+21 0 146.437 2.63924 0.000870756 0.0435378 
558 1.0868e+21 0 254.394 3.81716 0.00124121 0.0620605 
559 1.1716e+21 0 202.097 3.26905 0.00107209 0.0536046 
560 1.7941e+21 0 288.698 7.15111 0.00078195 0.0390975 
561 2.275e+21 0 237.07 7.4463 0.00058012 0.029006 
562 1.5083e+21 0 251.484 5.23699 0.000891166 0.0445583 
563 1.0584e+21 0 983.396 14.3702 0.00193813 0.0969067 
564 1.39e+21 0 376.697 7.22919 0.00109605 0.0548025 
565 2.2582e+21 0 431.304 13.4471 0.000703572 0.0351786 
566 1.756e+21 0 1100.79 26.6877 0.00120974 0.060487 
567 4.636e+20 0 884.49 5.66135 0.00428173 0.214087 
568 1.7764e+21 0 352.249 8.63921 0.000839984 0.0419992 
569 2.2186e+21 0 463.109 14.1855 0.000732101 0.036605 
570 1.4753e+21 0 677.766 13.8052 0.00123892 0.0619459 
571 1.9124e+21 0 581.09 15.3428 0.000911223 0.0455612 
572 1.6518e+21 0 540.522 12.3269 0.00103158 0.051579 
573 2.2585e+21 0 1225.03 38.1988 0.000972284 0.0486142 
574 1.451e+21 0 638.479 12.7908 0.00123656 0.0618281 
575 9.012e+20 0 1379.69 17.1666 0.00252813 0.126406 
576 6.092e+20 0 307.015 2.58228 0.00234719 0.117359 
577 1.2865e+21 0 308.023 5.47113 0.0011126 0.05563 
578 2.0926e+21 0 797.159 23.0311 0.000918503 0.0459252 
579 1.6961e+21 0 943.718 22.0992 0.00119409 0.0597046 
580 9.099e+20 0 1651.44 20.7462 0.00264747 0.132374 
581 1.0204e+21 0 559.355 7.88028 0.00168772 0.0843861 
582 1.2801e+21 0 216.861 3.83273 0.00100291 0.0501453 
583 1.5927e+21 0 1136.55 24.9922 0.00134706 0.0673529 
584 1.3382e+21 0 301.919 5.57821 0.001063 0.05315 
585 1.5715e+21 0 602.223 13.0664 0.00112124 0.056062 
586 1.6628e+21 0 1073.49 24.6446 0.00126764 0.063382 
587 1.3518e+21 0 430.689 8.03822 0.00117481 0.0587403 
588 1.7348e+21 0 254.563 6.09716 0.000777741 0.0388871 
589 1.9349e+21 0 422.017 11.2738 0.000815608 0.0407804 
590 1.6172e+21 0 390.641 8.72217 0.000952742 0.0476371 
591 2.0366e+21 0 428.541 12.0498 0.000778574 0.0389287 
592 1.696e+21 0 506.669 11.8641 0.000984752 0.0492376 
593 1.3563e+21 0 171.605 3.21342 0.000880311 0.0440156 
594 1.4685e+21 0 254.081 5.15146 0.000918239 0.0459119 
595 1.6905e+21 0 168.515 3.93312 0.000702313 0.0351157 
596 2.5963e+21 0 308.317 11.0519 0.000551471 0.0275735 
597 1.8284e+21 0 351.617 8.87613 0.00081564 0.040782 
598 2.3416e+21 0 437.526 14.1449 0.000681533 0.0340766 
599 1.1171e+21 0 238.301 3.67537 0.00118333 0.0591664 
600 1.0993e+21 0 154.97 2.35205 0.00105232 0.0526161 
601 1.1161e+21 0 257.282 3.96457 0.00121286 0.0606432 
602 6.932e+20 0 214.59 2.05377 0.00184599 0.0922994 
603 1.3669e+21 0 139.286 2.62861 0.00081877 0.0409385 
604 1.3272e+21 0 209.853 3.84534 0.000957514 0.0478757 
605 8.967e+20 0 193.159 2.39137 0.00138126 0.0690629 
606 1.3855e+21 0 149.355 2.857 0.000825448 0.0412724 
607 8.623e+20 0 266.865 3.17712 0.00158774 0.0793871 
608 1.636e+21 0 260.207 5.87741 0.000830336 0.0415168 
609 1.5774e+21 0 185.054 4.03018 0.000774835 0.0387417 
610 1.2433e+21 0 167.902 2.88214 0.000953849 0.0476925 
611 1.6073e+21 0 314.836 6.98658 0.000896597 0.0448298 
612 1.404e+21 0 208.544 4.04247 0.000903383 0.0451692 
613 1.9865e+21 0 262.336 7.19497 0.00068556 0.034278 
614 1.6889e+21 0 350.007 8.16139 0.000881755 0.0440877 
615 1.3373e+21 0 365.947 6.75662 0.00112906 0.0564532 
616 2.2195e+21 0 327.993 10.0508 0.000657583 0.0328792 
617 1.957e+21 0 579.251 15.651 0.000889582 0.0444791 
618 9.627e+20 0 429.421 5.70766 0.00164813 0.0824064 
619 7.897e+20 0 175.85 1.91729 0.00152342 0.0761711 
620 5.652e+20 0 408.009 3.18387 0.00276308 0.138154 
621 3.427e+20 0 136.119 0.644046 0.00324257 0.162128 
622 1.7128e+21 0 375.888 8.88891 0.000888893 0.0444447 
623 1.2962e+21 0 384.37 6.87867 0.00118274 0.0591369 
624 1.7141e+21 0 741.459 17.5471 0.00109642 0.0548212 
625 1.999e+21 0 584.895 16.1426 0.000873513 0.0436756 
626 1.512e+21 0 390.669 8.15537 0.00101905 0.0509527 
627 1.4402e+21 0 446.828 8.88477 0.00111534 0.0557672 
628 1.8988e+21 0 371.464 9.73822 0.000798883 0.0399441 
629 1.2471e+21 0 833.773 14.356 0.00156283 0.0781415 
630 1.3504e+21 0 500.209 9.32604 0.00123186 0.0615932 
631 1.6565e+21 0 348.264 7.96495 0.000897611 0.0448806 
632 1.1963e+21 0 188.539 3.11404 0.0010276 0.0513798 
633 1.5935e+21 0 512.341 11.2718 0.00105172 0.0525859 
634 1.4137e+21 0 322.718 6.29888 0.00102723 0.0513613 
635 2.3444e+21 0 367.146 11.8838 0.000644698 0.0322349 
636 2.0721e+21 0 398.433 11.3986 0.000748148 0.0374074 
637 1.1645e+21 0 301.223 4.84297 0.00122069 0.0610343 
638 7.488e+20 0 277.547 2.86936 0.00185079 0.0925394 
639 1.7724e+21 0 315.877 7.7297 0.000813911 0.0406955 
640 1.0736e+21 0 703.28 10.4245 0.00172209 0.0861044 
641 1.8881e+21 0 259.575 6.76661 0.000718927 0.0359463 
642 1.0693e+21 0 433.047 6.39319 0.0014877 0.0743848 
643 2.3045e+21 0 369.985 11.7718 0.000657428 0.0328714 
644 2.7138e+21 0 328.324 12.3017 0.000537978 0.0268989 
645 1.0005e+21 0 260.478 3.59808 0.00135819 0.0679094 
646 1.0864e+21 0 303.97 4.55936 0.00131213 0.0656063 
647 1.7861e+21 0 398.608 9.82957 0.000868063 0.0434032 
648 1.1321e+21 0 497.797 7.78072 0.0014672 0.07336 
649 1.585e+21 0 141.008 3.08573 0.000708802 0.0354401 
650 1.7757e+21 0 293.393 7.19288 0.000794013 0.0397007 
651 1.466e+21 0 288.139 5.83202 0.00095638 0.047819 
652 2.1402e+21 0 285.857 8.4467 0.000653492 0.0326746 
653 1.9664e+21 0 308.455 8.37427 0.000728225 0.0364113 
654 1.6164e+21 0 238.245 5.31686 0.000817742 0.0408871 
655 1.4189e+21 0 528.926 10.3617 0.00119286 0.0596429 
656 1.8987e+21 0 275.766 7.22904 0.000728449 0.0364225 
657 2.1998e+21 0 329.376 10.0036 0.000664338 0.0332169 
658 1.4386e+21 0 262.044 5.20472 0.000946333 0.0473166 
659 1.2516e+21 0 150.504 2.60074 0.00091593 0.0457965 
660 1.2751e+21 0 175.136 3.08321 0.000942302 0.0471151 
661 1.5917e+21 0 204.073 4.48467 0.000791518 0.0395759 
662 1.0791e+21 0 217.857 3.24577 0.00119141 0.0595703 
663 1.4795e+21 0 239.759 4.89748 0.000895165 0.0447583 
664 1.5374e+21 0 176.13 3.73856 0.000782906 0.0391453 
665 5.82e+20 0 152.647 1.22658 0.00197837 0.0989187 
666 1.9167e+21 0 258.843 6.84973 0.000707579 0.035379 
667 2.3982e+21 0 382.883 12.6775 0.000638489 0.0319244 
668 1.5048e+21 0 152.138 3.16083 0.00076437 0.0382185 
669 2.1264e+21 0 201.295 5.90963 0.000589971 0.0294986 
670 1.8253e+21 0 261.124 6.58058 0.000745034 0.0372517 
671 1.9057e+21 0 254.477 6.69555 0.000707921 0.035396 
672 1.7771e+21 0 465.047 11.4102 0.000915167 0.0457583 
673 1.2437e+21 0 218.605 3.7537 0.00103483 0.0517413 
674 1.3712e+21 0 330.042 6.24818 0.00106646 0.0533229 
675 1.422e+21 0 341.534 6.70529 0.00103933 0.0519665 
676 1.5118e+21 0 380.861 7.94957 0.00101119 0.0505593 
677 1.5356e+21 0 361.747 7.66948 0.00097975 0.0489875 
678 7.753e+20 0 175.163 1.87497 0.00154983 0.0774917 
679 1.0067e+21 0 883.068 12.2738 0.00197082 0.0985408 
680 9.512e+20 0 146.549 1.92459 0.00119528 0.0597641 
681 1.3741e+21 0 442.623 8.39721 0.00116557 0.0582787 
682 1.7053e+21 0 176.66 4.15932 0.00070648 0.035324 
683 2.2671e+21 0 172.287 5.39272 0.000527298 0.0263649 
684 1.4196e+21 0 190.98 3.74314 0.000869417 0.0434708 
685 1.2282e+21 0 270.094 4.58002 0.00111889 0.0559446 
686 1.6175e+21 0 314.597 7.02559 0.000890734 0.0445367 
687 1.5237e+21 0 161.886 3.4056 0.000769562 0.0384781 
688 1.5849e+21 0 244.311 5.34599 0.000840521 0.042026 
689 2.3988e+21 0 332.911 11.0257 0.000611246 0.0305623 
690 2.2255e+21 0 385.009 11.8299 0.000689218 0.0344609 
691 1.6521e+21 0 139.575 3.18367 0.000677863 0.0338932 
692 1.2516e+21 0 165.625 2.86203 0.000943521 0.047176 
693 9.6e+20 0 217.05 2.87683 0.00133767 0.0668837 
694 1.6535e+21 0 281.238 6.42038 0.000841582 0.0420791 