ITEM: TIMESTEP
20000
ITEM: NUMBER OF CELLS
2500
ITEM: BOX BOUNDS oo rr pp
0 1.5
0 0.5
-0.5 0.5
ITEM: CELLS id f_1[1] f_1[6] f_5[1] f_5[2] c_3[1] c_3[2] 
1 8.424e+20 0 193.403 2.24939 0.00147087 0.0735433 
2 6.972e+20 0 101.742 0.979355 0.00145632 0.0728158 
3 5.603e+20 0 164.365 1.27149 0.00210265 0.105133 
4 1.6265e+21 0 286.165 6.42618 0.000860171 0.0430086 
5 1.9129e+21 0 281.593 7.437 0.000727744 0.0363872 
6 1.4886e+21 0 206.268 4.23929 0.000849149 0.0424574 
7 1.5582e+21 0 222.612 4.7891 0.000830624 0.0415312 
8 2.0368e+21 0 443.351 12.4675 0.000786741 0.039337 
9 1.7481e+21 0 211.601 5.10701 0.00072884 0.036442 
10 2.3976e+21 0 302.028 9.99787 0.000593371 0.0296685 
11 2.607e+21 0 1557.1 56.0455 0.00090733 0.0453665 
12 1.3428e+21 0 2938.78 54.4831 0.00214491 0.107245 
13 4.9554e+21 0 2531.68 173.209 0.000554965 0.0277483 
14 1.24839e+22 0 1423.55 245.361 0.000184282 0.00921411 
15 0 0 0 0 1e+20 5e+21 
16 0 0 0 0 1e+20 5e+21 
17 0 0 0 0 1e+20 5e+21 
18 0 0 0 0 1e+20 5e+21 
19 0 0 0 0 1e+20 5e+21 
20 0 0 0 0 1e+20 5e+21 
21 0 0 0 0 1e+20 5e+21 
22 0 0 0 0 1e+20 5e+21 
23 0 0 0 0 1e+20 5e+21 
24 0 0 0 0 1e+20 5e+21 
25 0 0 0 0 1e+20 5e+21 
26 0 0 0 0 1e+20 5e+21 
27 0 0 0 0 1e+20 5e+21 
28 0 0 0 0 1e+20 5e+21 
29 0 0 0 0 1e+20 5e+21 
30 0 0 0 0 1e+20 5e+21 
31 0 0 0 0 1e+20 5e+21 
32 0 0 0 0 1e+20 5e+21 
33 0 0 0 0 1e+20 5e+21 
34 0 0 0 0 1e+20 5e+21 
35 0 0 0 0 1e+20 5e+21 
36 0 0 0 0 1e+20 5e+21 
37 0 0 0 0 1e+20 5e+21 
38 0 0 0 0 1e+20 5e+21 
39 0 0 0 0 1e+20 5e+21 
40 0 0 0 0 1e+20 5e+21 
41 0 0 0 0 1e+20 5e+21 
42 0 0 0 0 1e+20 5e+21 
43 0 0 0 0 1e+20 5e+21 
44 0 0 0 0 1e+20 5e+21 
45 1.2969e+21 0 289.843 5.18982 0.00108306 0.0541529 
46 2.3455e+21 0 447.544 14.4929 0.000685191 0.0342596 
47 1.0292e+21 0 314.172 4.46428 0.0013993 0.0699649 
48 4.639e+20 0 109.663 0.702373 0.00224018 0.112009 
49 1.8079e+21 0 134.914 3.36756 0.000612959 0.0306479 
50 1.6475e+21 0 123.532 2.80988 0.000654507 0.0327253 
51 2.1521e+21 0 213.813 6.353 0.000593931 0.0296965 
52 2.1685e+21 0 281.693 8.43372 0.000642036 0.0321018 
53 2.2026e+21 0 251.451 7.64666 0.000610229 0.0305114 
54 1.7437e+21 0 303.461 7.30564 0.000817087 0.0408543 
55 8.873e+20 0 138.584 1.69772 0.00125936 0.0629678 
56 9.858e+20 0 276.55 3.76397 0.00140426 0.0702132 
57 1.8895e+21 0 241.389 6.2972 0.000702399 0.0351199 
58 1.3855e+21 0 141.346 2.70379 0.000811464 0.0405732 
59 1.271e+21 0 193.064 3.38789 0.000974338 0.0487169 
60 1.4327e+21 0 235.384 4.65602 0.000919144 0.0459572 
61 2.1498e+21 0 247.446 7.34448 0.000622112 0.0311056 
62 2.3974e+21 0 2193.64 72.6087 0.00109726 0.0548629 
63 4.2761e+21 0 2224.16 131.31 0.00061782 0.030891 
64 1.38213e+22 0 1241.72 236.949 0.000159546 0.0079773 
65 0 0 0 0 1e+20 5e+21 
66 0 0 0 0 1e+20 5e+21 
67 0 0 0 0 1e+20 5e+21 
68 0 0 0 0 1e+20 5e+21 
69 0 0 0 0 1e+20 5e+21 
70 0 0 0 0 1e+20 5e+21 
71 0 0 0 0 1e+20 5e+21 
72 0 0 0 0 1e+20 5e+21 
73 0 0 0 0 1e+20 5e+21 
74 0 0 0 0 1e+20 5e+21 
75 0 0 0 0 1e+20 5e+21 
76 0 0 0 0 1e+20 5e+21 
77 0 0 0 0 1e+20 5e+21 
78 0 0 0 0 1e+20 5e+21 
79 0 0 0 0 1e+20 5e+21 
80 0 0 0 0 1e+20 5e+21 
81 0 0 0 0 1e+20 5e+21 
82 0 0 0 0 1e+20 5e+21 
83 0 0 0 0 1e+20 5e+21 
84 0 0 0 0 1e+20 5e+21 
85 0 0 0 0 1e+20 5e+21 
86 0 0 0 0 1e+20 5e+21 
87 0 0 0 0 1e+20 5e+21 
88 0 0 0 0 1e+20 5e+21 
89 0 0 0 0 1e+20 5e+21 
90 0 0 0 0 1e+20 5e+21 
91 0 0 0 0 1e+20 5e+21 
92 0 0 0 0 1e+20 5e+21 
93 0 0 0 0 1e+20 5e+21 
94 2.94e+19 0 -4.55492e-12 -1.84889e-15 -nan -nan 
95 6.853e+20 0 139.141 1.31649 0.00163259 0.0816297 
96 5.81e+20 0 170.362 1.36657 0.0020504 0.10252 
97 7.267e+20 0 104.602 1.04949 0.00140926 0.0704628 
98 1.8635e+21 0 125.668 3.23323 0.000581726 0.0290863 
99 1.412e+21 0 121.41 2.36687 0.000759578 0.0379789 
100 1.1007e+21 0 100.603 1.52885 0.00091924 0.045962 
101 1.2708e+21 0 274.689 4.8195 0.00108706 0.0543528 
102 1.6187e+21 0 398.076 8.89642 0.000957439 0.0478719 
103 1.2214e+21 0 189.602 3.1973 0.00100823 0.0504117 
104 9.481e+20 0 187.392 2.45295 0.00129416 0.0647079 
105 1.1571e+21 0 141.992 2.26838 0.000973013 0.0486506 
106 1.5415e+21 0 349.417 7.43655 0.000965565 0.0482782 
107 1.3274e+21 0 250.559 4.59192 0.00101146 0.0505729 
108 1.0778e+21 0 229.979 3.42224 0.00121303 0.0606517 
109 1.9317e+21 0 222.768 5.94122 0.000670166 0.0335083 
110 2.445e+21 0 334.188 11.2811 0.000600408 0.0300204 
111 9.16e+20 0 257.113 3.25165 0.00147751 0.0738756 
112 2.2213e+21 0 2252.7 69.0866 0.00119404 0.059702 
113 3.3882e+21 0 2629.02 122.983 0.000821212 0.0410606 
114 1.26426e+22 0 1395.98 243.667 0.000180869 0.00904344 
115 0 0 0 0 1e+20 5e+21 
116 0 0 0 0 1e+20 5e+21 
117 0 0 0 0 1e+20 5e+21 
118 0 0 0 0 1e+20 5e+21 
119 0 0 0 0 1e+20 5e+21 
120 0 0 0 0 1e+20 5e+21 
121 0 0 0 0 1e+20 5e+21 
122 0 0 0 0 1e+20 5e+21 
123 0 0 0 0 1e+20 5e+21 
124 0 0 0 0 1e+20 5e+21 
125 0 0 0 0 1e+20 5e+21 
126 0 0 0 0 1e+20 5e+21 
127 0 0 0 0 1e+20 5e+21 
128 0 0 0 0 1e+20 5e+21 
129 0 0 0 0 1e+20 5e+21 
130 0 0 0 0 1e+20 5e+21 
131 0 0 0 0 1e+20 5e+21 
132 0 0 0 0 1e+20 5e+21 
133 0 0 0 0 1e+20 5e+21 
134 0 0 0 0 1e+20 5e+21 
135 0 0 0 0 1e+20 5e+21 
136 0 0 0 0 1e+20 5e+21 
137 0 0 0 0 1e+20 5e+21 
138 0 0 0 0 1e+20 5e+21 
139 0 0 0 0 1e+20 5e+21 
140 0 0 0 0 1e+20 5e+21 
141 0 0 0 0 1e+20 5e+21 
142 0 0 0 0 1e+20 5e+21 
143 0 0 0 0 1e+20 5e+21 
144 0 0 0 0 1e+20 5e+21 
145 2.115e+20 0 5.62815e-13 1.64346e-15 1.82638e-07 9.1319e-06 
146 2.791e+20 0 -7.50635e-11 -2.89249e-13 -nan -nan 
147 1.2957e+21 0 121.567 2.17473 0.000828089 0.0414044 
148 1.6913e+21 0 180.797 4.22179 0.000717459 0.0358729 
149 1.1276e+21 0 203.379 3.16624 0.00111611 0.0558056 
150 9.635e+20 0 110.129 1.465 0.00108001 0.0540003 
151 5.456e+20 0 577.161 4.34765 0.00318725 0.159362 
152 4.27e+20 0 555.605 3.2755 0.00402474 0.201237 
153 1.5361e+21 0 408.301 8.65931 0.00101689 0.0508443 
154 7.323e+20 0 220.246 2.2268 0.00176157 0.0880786 
155 7.711e+20 0 158.18 1.68402 0.00150978 0.0754892 
156 2.0447e+21 0 197.047 5.56267 0.000609502 0.0304751 
157 1.378e+21 0 255.855 4.86773 0.000980657 0.0490328 
158 1.6155e+21 0 272.394 6.07558 0.000852889 0.0426444 
159 1.5302e+21 0 286.425 6.05121 0.000914562 0.0457281 
160 7.763e+20 0 164.801 1.76633 0.00151885 0.0759427 
161 1.294e+21 0 255.309 4.56125 0.00104362 0.0521812 
162 1.8599e+21 0 2747.32 70.5477 0.00151656 0.0758282 
163 4.8445e+21 0 2762.62 184.78 0.000583242 0.0291621 
164 1.65051e+22 0 911.842 207.788 0.000121407 0.00607037 
165 0 0 0 0 1e+20 5e+21 
166 0 0 0 0 1e+20 5e+21 
167 0 0 0 0 1e+20 5e+21 
168 0 0 0 0 1e+20 5e+21 
169 0 0 0 0 1e+20 5e+21 
170 0 0 0 0 1e+20 5e+21 
171 0 0 0 0 1e+20 5e+21 
172 0 0 0 0 1e+20 5e+21 
173 0 0 0 0 1e+20 5e+21 
174 0 0 0 0 1e+20 5e+21 
175 0 0 0 0 1e+20 5e+21 
176 0 0 0 0 1e+20 5e+21 
177 0 0 0 0 1e+20 5e+21 
178 0 0 0 0 1e+20 5e+21 
179 0 0 0 0 1e+20 5e+21 
180 0 0 0 0 1e+20 5e+21 
181 0 0 0 0 1e+20 5e+21 
182 0 0 0 0 1e+20 5e+21 
183 0 0 0 0 1e+20 5e+21 
184 0 0 0 0 1e+20 5e+21 
185 0 0 0 0 1e+20 5e+21 
186 0 0 0 0 1e+20 5e+21 
187 0 0 0 0 1e+20 5e+21 
188 0 0 0 0 1e+20 5e+21 
189 0 0 0 0 1e+20 5e+21 
190 0 0 0 0 1e+20 5e+21 
191 0 0 0 0 1e+20 5e+21 
192 0 0 0 0 1e+20 5e+21 
193 0 0 0 0 1e+20 5e+21 
194 0 0 0 0 1e+20 5e+21 
195 1.147e+20 0 246.478 0.390323 0.011646 0.582299 
196 1.3956e+21 0 162.771 3.13632 0.000841619 0.042081 
197 1.2119e+21 0 303.789 5.08302 0.00117603 0.0588015 
198 1.0498e+21 0 137.902 1.99877 0.00106279 0.0531397 
199 1.2731e+21 0 187.622 3.29784 0.000964147 0.0482074 
200 1.2284e+21 0 203.869 3.45759 0.00102529 0.0512645 
201 1.5661e+21 0 188.304 4.07156 0.000784648 0.0392324 
202 2.1513e+21 0 218.056 6.47667 0.000597782 0.0298891 
203 2.1084e+21 0 449.545 13.0861 0.000763299 0.038165 
204 1.6018e+21 0 384.518 8.5037 0.000957203 0.0478601 
205 1.8409e+21 0 403.633 10.2589 0.0008455 0.042275 
206 1.4602e+21 0 247.956 4.99886 0.000916499 0.045825 
207 6.464e+20 0 354.523 3.16394 0.002313 0.11565 
208 1.406e+21 0 289.477 5.6193 0.000998626 0.0499313 
209 1.7599e+21 0 233.863 5.68242 0.000746755 0.0373378 
210 9.388e+20 0 229.083 2.96927 0.00139095 0.0695477 
211 1.4453e+21 0 255.221 5.09281 0.000934274 0.0467137 
212 2.7307e+21 0 918.243 34.619 0.000735412 0.0367706 
213 5.361e+21 0 2225.64 164.734 0.000492894 0.0246447 
214 1.27968e+22 0 1406.59 248.516 0.00017911 0.00895548 
215 0 0 0 0 1e+20 5e+21 
216 0 0 0 0 1e+20 5e+21 
217 0 0 0 0 1e+20 5e+21 
218 0 0 0 0 1e+20 5e+21 
219 0 0 0 0 1e+20 5e+21 
220 0 0 0 0 1e+20 5e+21 
221 0 0 0 0 1e+20 5e+21 
222 0 0 0 0 1e+20 5e+21 
223 0 0 0 0 1e+20 5e+21 
224 0 0 0 0 1e+20 5e+21 
225 0 0 0 0 1e+20 5e+21 
226 0 0 0 0 1e+20 5e+21 
227 0 0 0 0 1e+20 5e+21 
228 0 0 0 0 1e+20 5e+21 
229 0 0 0 0 1e+20 5e+21 
230 0 0 0 0 1e+20 5e+21 
231 0 0 0 0 1e+20 5e+21 
232 0 0 0 0 1e+20 5e+21 
233 0 0 0 0 1e+20 5e+21 
234 0 0 0 0 1e+20 5e+21 
235 0 0 0 0 1e+20 5e+21 
236 0 0 0 0 1e+20 5e+21 
237 0 0 0 0 1e+20 5e+21 
238 0 0 0 0 1e+20 5e+21 
239 0 0 0 0 1e+20 5e+21 
240 0 0 0 0 1e+20 5e+21 
241 0 0 0 0 1e+20 5e+21 
242 0 0 0 0 1e+20 5e+21 
243 0 0 0 0 1e+20 5e+21 
244 0 0 0 0 1e+20 5e+21 
245 0 0 0 0 1e+20 5e+21 
246 1.1495e+21 0 175.403 2.78375 0.00104576 0.0522878 
247 1.2765e+21 0 308.185 5.43144 0.0011215 0.0560749 
248 1.3243e+21 0 122.846 2.24611 0.000812838 0.0406419 
249 1.2557e+21 0 190.836 3.30849 0.000982668 0.0491334 
250 1.9058e+21 0 256.375 6.74585 0.000709516 0.0354758 
251 2.4599e+21 0 244.314 8.29754 0.000541545 0.0270773 
252 2.5696e+21 0 233.406 8.28056 0.000511137 0.0255568 
253 2.3315e+21 0 244.051 7.85597 0.000571178 0.0285589 
254 1.647e+21 0 221.836 5.04438 0.00078499 0.0392495 
255 2.0063e+21 0 146.182 4.04924 0.000566251 0.0283126 
256 1.2167e+21 0 218.911 3.67735 0.00105825 0.0529124 
257 1.7936e+21 0 352.519 8.72954 0.000832126 0.0416063 
258 8.532e+20 0 274.568 3.23432 0.00161889 0.0809447 
259 1.4336e+21 0 218.257 4.31995 0.000897305 0.0448652 
260 1.4043e+21 0 177.152 3.43471 0.000858649 0.0429324 
261 1.0292e+21 0 261.004 3.70877 0.00132114 0.066057 
262 1.772e+21 0 987.863 24.1682 0.00115926 0.0579629 
263 3.257e+21 0 3169.84 142.54 0.000905298 0.0452649 
264 1.92861e+22 0 1451.09 386.386 0.000119996 0.00599982 
265 0 0 0 0 1e+20 5e+21 
266 0 0 0 0 1e+20 5e+21 
267 0 0 0 0 1e+20 5e+21 
268 0 0 0 0 1e+20 5e+21 
269 0 0 0 0 1e+20 5e+21 
270 0 0 0 0 1e+20 5e+21 
271 0 0 0 0 1e+20 5e+21 
272 0 0 0 0 1e+20 5e+21 
273 0 0 0 0 1e+20 5e+21 
274 0 0 0 0 1e+20 5e+21 
275 0 0 0 0 1e+20 5e+21 
276 0 0 0 0 1e+20 5e+21 
277 0 0 0 0 1e+20 5e+21 
278 0 0 0 0 1e+20 5e+21 
279 0 0 0 0 1e+20 5e+21 
280 0 0 0 0 1e+20 5e+21 
281 0 0 0 0 1e+20 5e+21 
282 0 0 0 0 1e+20 5e+21 
283 0 0 0 0 1e+20 5e+21 
284 0 0 0 0 1e+20 5e+21 
285 0 0 0 0 1e+20 5e+21 
286 0 0 0 0 1e+20 5e+21 
287 0 0 0 0 1e+20 5e+21 
288 0 0 0 0 1e+20 5e+21 
289 0 0 0 0 1e+20 5e+21 
290 0 0 0 0 1e+20 5e+21 
291 0 0 0 0 1e+20 5e+21 
292 0 0 0 0 1e+20 5e+21 
293 1.23e+20 0 3.53235e-11 5.99863e-14 1.13314e-06 5.66569e-05 
294 0 0 0 0 1e+20 5e+21 
295 0 0 0 0 1e+20 5e+21 
296 1.1205e+21 0 215.134 3.32816 0.00114292 0.057146 
297 2.7082e+21 0 170.609 6.37918 0.000440076 0.0220038 
298 2.0502e+21 0 186.124 5.26845 0.000597215 0.0298608 
299 1.4455e+21 0 278.339 5.55488 0.000959594 0.0479797 
300 1.6747e+21 0 150.284 3.47482 0.000684217 0.0342108 
301 1.638e+21 0 218.703 4.94598 0.000785831 0.0392916 
302 1.3741e+21 0 295.566 5.60732 0.00102842 0.0514212 
303 1.2935e+21 0 155.612 2.77903 0.000895478 0.0447739 
304 1.505e+21 0 398.549 8.28136 0.00103015 0.0515075 
305 7.458e+20 0 129.521 1.33367 0.00146721 0.0733604 
306 2.488e+20 0 213.236 0.732478 0.00513316 0.256658 
307 1.0882e+21 0 264.581 3.97512 0.00125479 0.0627397 
308 2.1108e+21 0 158.128 4.60828 0.000551485 0.0275742 
309 1.4695e+21 0 315.027 6.39147 0.000980858 0.0490429 
310 4.018e+20 0 380.464 2.1106 0.00380343 0.190171 
311 1.0128e+21 0 233.212 3.26105 0.00129648 0.0648242 
312 1.4455e+21 0 1067.3 21.3003 0.00145559 0.0727794 
313 4.7679e+21 0 3137.12 206.51 0.000616432 0.0308216 
314 1.39038e+22 0 1740.46 334.103 0.0001761 0.00880502 
315 0 0 0 0 1e+20 5e+21 
316 0 0 0 0 1e+20 5e+21 
317 0 0 0 0 1e+20 5e+21 
318 0 0 0 0 1e+20 5e+21 
319 0 0 0 0 1e+20 5e+21 
320 0 0 0 0 1e+20 5e+21 
321 0 0 0 0 1e+20 5e+21 
322 0 0 0 0 1e+20 5e+21 
323 0 0 0 0 1e+20 5e+21 
324 0 0 0 0 1e+20 5e+21 
325 0 0 0 0 1e+20 5e+21 
326 0 0 0 0 1e+20 5e+21 
327 0 0 0 0 1e+20 5e+21 
328 0 0 0 0 1e+20 5e+21 
329 0 0 0 0 1e+20 5e+21 
330 0 0 0 0 1e+20 5e+21 
331 0 0 0 0 1e+20 5e+21 
332 0 0 0 0 1e+20 5e+21 
333 0 0 0 0 1e+20 5e+21 
334 0 0 0 0 1e+20 5e+21 
335 0 0 0 0 1e+20 5e+21 
336 0 0 0 0 1e+20 5e+21 
337 0 0 0 0 1e+20 5e+21 
338 0 0 0 0 1e+20 5e+21 
339 0 0 0 0 1e+20 5e+21 
340 0 0 0 0 1e+20 5e+21 
341 0 0 0 0 1e+20 5e+21 
342 0 0 0 0 1e+20 5e+21 
343 2.904e+20 0 1.02475e-11 4.10865e-14 3.27027e-07 1.63513e-05 
344 0 0 0 0 1e+20 5e+21 
345 4.786e+20 0 173.843 1.14872 0.00250475 0.125238 
346 2.5956e+21 0 192.643 6.90357 0.000476786 0.0238393 
347 1.1402e+21 0 59.0764 0.929989 0.000752394 0.0376197 
348 8.314e+20 0 113.96 1.30811 0.00126494 0.0632471 
349 1.7898e+21 0 139.716 3.4525 0.000625907 0.0312953 
350 9.014e+20 0 179.552 2.23456 0.00134329 0.0671645 
351 1.4568e+21 0 186.614 3.75342 0.000841164 0.0420582 
352 1.0596e+21 0 343.881 5.03075 0.00139776 0.069888 
353 1.0671e+21 0 157.726 2.32376 0.00109002 0.0545008 
354 1.3005e+21 0 166.039 2.98129 0.000908747 0.0454373 
355 6.267e+20 0 174.452 1.50945 0.00191491 0.0957453 
356 7.717e+20 0 237.421 2.5296 0.001711 0.0855501 
357 4.36e+20 0 208.528 1.25526 0.00290899 0.14545 
358 1.0669e+21 0 274.196 4.03895 0.00129409 0.0647043 
359 1.4916e+21 0 105.22 2.16687 0.000687837 0.0343918 
360 2.3119e+21 0 261.426 8.34452 0.000588433 0.0294217 
361 2.2922e+21 0 215.119 6.80791 0.000558683 0.0279342 
362 9.252e+20 0 1265.7 16.1677 0.00239759 0.11988 
363 3.9184e+21 0 3451.9 186.745 0.00077264 0.038632 
364 8.0901e+21 0 1202.27 134.289 0.000269858 0.0134929 
365 0 0 0 0 1e+20 5e+21 
366 0 0 0 0 1e+20 5e+21 
367 0 0 0 0 1e+20 5e+21 
368 0 0 0 0 1e+20 5e+21 
369 0 0 0 0 1e+20 5e+21 
370 0 0 0 0 1e+20 5e+21 
371 0 0 0 0 1e+20 5e+21 
372 0 0 0 0 1e+20 5e+21 
373 0 0 0 0 1e+20 5e+21 
374 0 0 0 0 1e+20 5e+21 
375 0 0 0 0 1e+20 5e+21 
376 0 0 0 0 1e+20 5e+21 
377 0 0 0 0 1e+20 5e+21 
378 0 0 0 0 1e+20 5e+21 
379 0 0 0 0 1e+20 5e+21 
380 0 0 0 0 1e+20 5e+21 
381 0 0 0 0 1e+20 5e+21 
382 0 0 0 0 1e+20 5e+21 
383 0 0 0 0 1e+20 5e+21 
384 0 0 0 0 1e+20 5e+21 
385 0 0 0 0 1e+20 5e+21 
386 0 0 0 0 1e+20 5e+21 
387 0 0 0 0 1e+20 5e+21 
388 0 0 0 0 1e+20 5e+21 
389 0 0 0 0 1e+20 5e+21 
390 0 0 0 0 1e+20 5e+21 
391 0 0 0 0 1e+20 5e+21 
392 0 0 0 0 1e+20 5e+21 
393 1.178e+20 0 70.6726 0.114942 0.00769858 0.384929 
394 0 0 0 0 1e+20 5e+21 
395 0 0 0 0 1e+20 5e+21 
396 1.0887e+21 0 136.23 2.0477 0.00102095 0.0510475 
397 1.4465e+21 0 130.824 2.61269 0.000758827 0.0379413 
398 1.6142e+21 0 76.6734 1.70878 0.000576196 0.0288098 
399 1.0843e+21 0 179.18 2.68239 0.00111599 0.0557993 
400 2.2013e+21 0 287.59 8.7405 0.000636544 0.0318272 
401 6.02e+19 0 3.6265 0.00301416 0.00599974 0.299987 
402 1.1703e+21 0 228.625 3.69407 0.00111511 0.0557557 
403 1.5106e+21 0 291.504 6.07964 0.000931491 0.0465745 
404 1.3361e+21 0 211.025 3.89275 0.00095278 0.047639 
405 1.5176e+21 0 234.982 4.92352 0.000867264 0.0433632 
406 2.4545e+21 0 295.646 10.0188 0.00057579 0.0287895 
407 2.1346e+21 0 211.904 6.24508 0.000597138 0.0298569 
408 3.772e+20 0 210.691 1.09724 0.00337324 0.168662 
409 1.5682e+21 0 116.759 2.52798 0.000675688 0.0337844 
410 2.083e+21 0 258.001 7.41984 0.000650431 0.0325216 
411 2.165e+21 0 233.92 6.99212 0.000607073 0.0303537 
412 1.8593e+21 0 829.038 21.2817 0.0010464 0.0523199 
413 2.7378e+21 0 2476.65 93.6159 0.000997664 0.0498832 
414 1.41114e+22 0 1134.37 221.007 0.000151947 0.00759734 
415 0 0 0 0 1e+20 5e+21 
416 0 0 0 0 1e+20 5e+21 
417 0 0 0 0 1e+20 5e+21 
418 0 0 0 0 1e+20 5e+21 
419 0 0 0 0 1e+20 5e+21 
420 0 0 0 0 1e+20 5e+21 
421 0 0 0 0 1e+20 5e+21 
422 0 0 0 0 1e+20 5e+21 
423 0 0 0 0 1e+20 5e+21 
424 0 0 0 0 1e+20 5e+21 
425 0 0 0 0 1e+20 5e+21 
426 0 0 0 0 1e+20 5e+21 
427 0 0 0 0 1e+20 5e+21 
428 0 0 0 0 1e+20 5e+21 
429 0 0 0 0 1e+20 5e+21 
430 0 0 0 0 1e+20 5e+21 
431 0 0 0 0 1e+20 5e+21 
432 0 0 0 0 1e+20 5e+21 
433 0 0 0 0 1e+20 5e+21 
434 0 0 0 0 1e+20 5e+21 
435 0 0 0 0 1e+20 5e+21 
436 0 0 0 0 1e+20 5e+21 
437 0 0 0 0 1e+20 5e+21 
438 0 0 0 0 1e+20 5e+21 
439 0 0 0 0 1e+20 5e+21 
440 0 0 0 0 1e+20 5e+21 
441 0 0 0 0 1e+20 5e+21 
442 0 0 0 0 1e+20 5e+21 
443 5.06e+20 0 47.0488 0.328687 0.00157989 0.0789946 
444 6e+17 0 1.54994e-12 1.28395e-17 8.81321e-05 0.00440661 
445 2.61e+20 0 210.829 0.759721 0.00487602 0.243801 
446 1.1e+21 0 206.108 3.13018 0.00114885 0.0574427 
447 1.2712e+21 0 164.89 2.89396 0.000927694 0.0463847 
448 2.38e+21 0 193.18 6.3478 0.000520427 0.0260213 
449 1.8807e+21 0 272.009 7.06295 0.0007323 0.036615 
450 1.6461e+21 0 181.285 4.12003 0.000737775 0.0368887 
451 1.7763e+21 0 170.177 4.1735 0.000670426 0.0335213 
452 1.8946e+21 0 240.442 6.28942 0.000699654 0.0349827 
453 1.4123e+21 0 355.477 6.93142 0.00105953 0.0529764 
454 1.2805e+21 0 333.426 5.8947 0.00114561 0.0572807 
455 1.3222e+21 0 238.812 4.3595 0.00100043 0.0500217 
456 1.8329e+21 0 395.134 9.99923 0.000843607 0.0421803 
457 1.8294e+21 0 288.69 7.29162 0.000766855 0.0383427 
458 1.7893e+21 0 242.357 5.98718 0.000742654 0.0371327 
459 6e+20 0 266.692 2.20925 0.00228139 0.11407 
460 1.4746e+21 0 190.308 3.87449 0.000836075 0.0418038 
461 1.4751e+21 0 227.155 4.62623 0.000882931 0.0441465 
462 2.0401e+21 0 475.264 13.3866 0.000802577 0.0401288 
463 3.7584e+21 0 2082.92 108.083 0.000688769 0.0344384 
464 7.0338e+21 0 2243.7 217.891 0.000376615 0.0188307 
465 0 0 0 0 1e+20 5e+21 
466 0 0 0 0 1e+20 5e+21 
467 0 0 0 0 1e+20 5e+21 
468 0 0 0 0 1e+20 5e+21 
469 0 0 0 0 1e+20 5e+21 
470 0 0 0 0 1e+20 5e+21 
471 0 0 0 0 1e+20 5e+21 
472 0 0 0 0 1e+20 5e+21 
473 0 0 0 0 1e+20 5e+21 
474 0 0 0 0 1e+20 5e+21 
475 0 0 0 0 1e+20 5e+21 
476 0 0 0 0 1e+20 5e+21 
477 0 0 0 0 1e+20 5e+21 
478 0 0 0 0 1e+20 5e+21 
479 0 0 0 0 1e+20 5e+21 
480 0 0 0 0 1e+20 5e+21 
481 0 0 0 0 1e+20 5e+21 
482 0 0 0 0 1e+20 5e+21 
483 0 0 0 0 1e+20 5e+21 
484 0 0 0 0 1e+20 5e+21 
485 0 0 0 0 1e+20 5e+21 
486 0 0 0 0 1e+20 5e+21 
487 0 0 0 0 1e+20 5e+21 
488 0 0 0 0 1e+20 5e+21 
489 0 0 0 0 1e+20 5e+21 
490 0 0 0 0 1e+20 5e+21 
491 0 0 0 0 1e+20 5e+21 
492 0 0 0 0 1e+20 5e+21 
493 4.705e+20 0 56.2957 0.365694 0.00179629 0.0898143 
494 5.54e+19 0 -1.53629e-10 -1.17507e-13 -nan -nan 
495 5.489e+20 0 297.339 2.25335 0.00257931 0.128965 
496 1.4768e+21 0 272.065 5.54724 0.000932642 0.0466321 
497 1.5482e+21 0 231.743 4.95355 0.000846473 0.0423236 
498 6.707e+20 0 123.919 1.1475 0.00160929 0.0804643 
499 2.3966e+21 0 313.672 10.379 0.00060062 0.030031 
500 2.1479e+21 0 244.635 7.25463 0.000620461 0.0310231 
501 1.1372e+21 0 247.158 3.88057 0.00117564 0.0587819 
502 1.5279e+21 0 377.241 7.95786 0.000997573 0.0498787 
503 7.172e+20 0 428.326 4.24129 0.00221054 0.110527 
504 1.1554e+21 0 299.298 4.77441 0.00122786 0.0613929 
505 2.1302e+21 0 263.645 7.75394 0.0006403 0.032015 
506 2.349e+21 0 268.761 8.71631 0.000584129 0.0292064 
507 2.0649e+21 0 256.514 7.31297 0.000654958 0.0327479 
508 1.1364e+21 0 257.409 4.03866 0.00119138 0.059569 
509 1.0021e+21 0 93.2114 1.28963 0.000986081 0.049304 
510 6.889e+20 0 133.886 1.27343 0.0016048 0.0802399 
511 1.5144e+21 0 267.458 5.59216 0.000904684 0.0452342 
512 2.479e+21 0 245.215 8.39279 0.000537986 0.0268993 
513 4.6348e+21 0 1590.93 101.804 0.00051377 0.0256885 
514 3.6728e+21 0 1835.69 93.0853 0.000677749 0.0338875 
515 1.6403e+21 0 467.841 10.5951 0.000993334 0.0496667 
516 1.361e+20 0 208.228 0.391274 0.00931488 0.465744 
517 1.4132e+21 0 1431.34 27.9272 0.00163066 0.0815331 
518 7.366e+20 0 716.206 7.28372 0.00252417 0.126208 
519 1.897e+21 0 1075.75 28.1749 0.00111186 0.0555932 
520 1.0545e+21 0 536.074 7.80467 0.00161176 0.0805882 
521 3.244e+20 0 477.358 2.138 0.00505416 0.252708 
522 4.674e+20 0 415.829 2.68341 0.00336096 0.168048 
523 1.1724e+21 0 553.515 8.9596 0.00146414 0.073207 
524 1.4092e+21 0 279.344 5.43494 0.000985413 0.0492707 
525 7.93e+19 0 1.57613e-11 1.72563e-14 1.36857e-06 6.84287e-05 
526 5.153e+20 0 548.153 3.89983 0.00332114 0.166057 
527 1.5668e+21 0 894.857 19.3575 0.0012715 0.0635752 
528 2.4489e+21 0 1050.17 35.5071 0.000854885 0.0427443 
529 1.995e+21 0 735.666 20.2631 0.000939758 0.0469879 
530 1.722e+20 0 1140.94 2.71257 0.012474 0.623702 
531 1.6328e+21 0 2221.2 50.0731 0.00161733 0.0808663 
532 9.86e+19 0 -9.05441e-11 -1.2326e-13 -nan -nan 
533 1.335e+20 0 117.623 0.216798 0.00795535 0.397767 
534 5.575e+20 0 1123.58 8.64836 0.0038347 0.191735 
535 7.539e+20 0 762.165 7.93316 0.00251426 0.125713 
536 4.428e+20 0 141.055 0.862344 0.00253741 0.126871 
537 2.2838e+21 0 987.746 31.1449 0.000899436 0.0449718 
538 1.1763e+21 0 637.376 10.3513 0.00152452 0.0762259 
539 1.733e+21 0 1894.34 45.3252 0.00145045 0.0725223 
540 1.8454e+21 0 965.952 24.611 0.00110544 0.0552718 
541 1.521e+20 0 4.97742e-10 1.04524e-12 2.0808e-06 0.00010404 
542 4.65e+20 0 356.546 2.28903 0.003221 0.16105 
543 1.1132e+21 0 470.312 7.22841 0.00146607 0.0733035 
544 4.797e+20 0 130.932 0.867161 0.00228877 0.114439 
545 7.135e+20 0 323.618 3.18794 0.00203706 0.101853 
546 1.9885e+21 0 328.751 9.02559 0.000734499 0.0367249 
547 1.7388e+21 0 277.474 6.66124 0.000796962 0.0398481 
548 1.0312e+21 0 90.7899 1.2926 0.000950466 0.0475233 
549 1.4723e+21 0 371.755 7.55678 0.00103056 0.0515278 
550 1.473e+21 0 305.221 6.20727 0.000968982 0.0484491 
551 2.0576e+21 0 230.79 6.55635 0.000636099 0.0318049 
552 1.9093e+21 0 166.721 4.39489 0.000619771 0.0309885 
553 2.0192e+21 0 274.871 7.66286 0.000684287 0.0342144 
554 1.4908e+21 0 214.171 4.40821 0.000857836 0.0428918 
555 2.0718e+21 0 299.01 8.55297 0.000684546 0.0342273 
556 1.4607e+21 0 273.268 5.51103 0.000944212 0.0472106 
557 1.0448e+21 0 380.996 5.49587 0.00146332 0.0731661 
558 1.4398e+21 0 225.945 4.49147 0.000903081 0.0451541 
559 1.485e+21 0 115.778 2.37375 0.000711681 0.035584 
560 1.3878e+21 0 263.974 5.05792 0.000983208 0.0491604 
561 9.778e+20 0 89.3383 1.20607 0.000997378 0.0498689 
562 1.0334e+21 0 1595.74 22.7674 0.00230642 0.115321 
563 2.8937e+21 0 1967.64 78.611 0.000878937 0.0439469 
564 2.9888e+21 0 1825.83 75.3424 0.000831464 0.0415732 
565 1.3929e+21 0 1190.4 22.8927 0.00156255 0.0781273 
566 6.77e+20 0 386.246 3.61024 0.00226792 0.113396 
567 1.2178e+21 0 1305.16 21.9444 0.00183894 0.0919471 
568 9.98e+20 0 382.661 5.27264 0.00153402 0.0767008 
569 9.11e+20 0 828.369 10.419 0.0021351 0.106755 
570 6.702e+20 0 488.736 4.52232 0.00246432 0.123216 
571 1.469e+21 0 1227.18 24.8894 0.00149564 0.0747822 
572 4.768e+20 0 603.319 3.97161 0.00369761 0.184881 
573 1.8052e+21 0 216.234 5.3893 0.000710541 0.0355271 
574 7.414e+20 0 758.013 7.75912 0.00255232 0.127616 
575 3.703e+20 0 410.206 2.09719 0.0042244 0.21122 
576 9.066e+20 0 55.2084 0.691042 0.000926603 0.0463302 
577 8.272e+20 0 157.227 1.79565 0.00140476 0.0702379 
578 1.417e+21 0 1069.77 20.9288 0.00148593 0.0742965 
579 1.1755e+21 0 807.903 13.1119 0.0016419 0.082095 
580 8.255e+20 0 586.854 6.68852 0.00211746 0.105873 
581 7.523e+20 0 1543.14 16.0281 0.00313547 0.156774 
582 6.64e+20 0 878.613 8.05469 0.0029833 0.149165 
583 8.349e+20 0 999.427 11.5204 0.00246931 0.123466 
584 2.2922e+21 0 1507.75 47.716 0.00102169 0.0510843 
585 9.655e+20 0 1105.95 14.7425 0.0022034 0.11017 
586 1.3597e+21 0 127.336 2.39044 0.000800534 0.0400267 
587 1.2125e+21 0 362.303 6.06509 0.00124142 0.062071 
588 5.815e+20 0 497.99 3.9981 0.00285678 0.142839 
589 6.267e+20 0 745.647 6.45173 0.0030041 0.150205 
590 1.2716e+21 0 833.58 14.6346 0.00153261 0.0766304 
591 4.765e+20 0 864.756 5.68905 0.00413678 0.206839 
592 1.3713e+21 0 397.413 7.52415 0.00112959 0.0564795 
593 9.196e+20 0 335.876 4.26444 0.00159884 0.079942 
594 9.608e+20 0 264.725 3.51165 0.00142142 0.0710708 
595 1.4267e+21 0 267.535 5.26983 0.000960381 0.048019 
596 1.4301e+21 0 415.742 8.20868 0.00109839 0.0549195 
597 1.8326e+21 0 424.419 10.7386 0.000862654 0.0431327 
598 2.1805e+21 0 246.162 7.41071 0.000612365 0.0306182 
599 1.2995e+21 0 135.347 2.42833 0.000853613 0.0426806 
600 1.6815e+21 0 344.311 7.9934 0.000881142 0.0440571 
601 1.7162e+21 0 269.602 6.38814 0.000800284 0.0400142 
602 1.9195e+21 0 224.127 5.93973 0.000675699 0.033785 
603 9.545e+20 0 252.195 3.32349 0.00140945 0.0704726 
604 1.8601e+21 0 274.769 7.05646 0.000742731 0.0371366 
605 1.1789e+21 0 268.52 4.37055 0.00116357 0.0581787 
606 1.9249e+21 0 150.275 3.99371 0.00059527 0.0297635 
607 2.1374e+21 0 166.232 4.90551 0.000553126 0.0276563 
608 1.4738e+21 0 127.861 2.60171 0.000739499 0.036975 
609 1.309e+21 0 369.585 6.67939 0.00115702 0.0578508 
610 1.661e+21 0 345.532 7.92395 0.000892997 0.0446498 
611 1.7554e+21 0 226.781 5.49625 0.000741567 0.0370783 
612 1.5804e+21 0 294.979 6.43637 0.000893627 0.0446813 
613 1.5053e+21 0 835.366 17.3613 0.00129553 0.0647764 
614 2.4906e+21 0 1501.27 51.6232 0.000939044 0.0469522 
615 3.4669e+21 0 1030.71 49.3356 0.00060037 0.0300185 
616 2.7787e+21 0 695.266 26.6733 0.000662999 0.03315 
617 2.3582e+21 0 834.291 27.1632 0.000826639 0.0413319 
618 1.7135e+21 0 631.184 14.9322 0.0010434 0.0521702 
619 1.0981e+21 0 515.33 7.81287 0.00152895 0.0764474 
620 1.2397e+21 0 509.29 8.71696 0.00134937 0.0674684 
621 1.7578e+21 0 779.06 18.907 0.00108569 0.0542845 
622 1.7943e+21 0 769.159 19.0544 0.0010594 0.0529698 
623 5.836e+20 0 420.367 3.38709 0.00270083 0.135042 
624 1.1897e+21 0 727.999 11.9578 0.00157076 0.0785382 
625 1.6725e+21 0 487.807 11.2641 0.000986913 0.0493456 
626 8.225e+20 0 476.552 5.41164 0.00199235 0.0996176 
627 1.2555e+21 0 485.558 8.41668 0.00131282 0.0656411 
628 7.849e+20 0 1524.73 16.5231 0.00299408 0.149704 
629 6.338e+20 0 414.93 3.63086 0.0024769 0.123845 
630 1.4057e+21 0 537.464 10.431 0.00121005 0.0605026 
631 8.627e+20 0 286.888 3.41709 0.001623 0.0811501 
632 4.457e+20 0 103.014 0.633904 0.00228688 0.114344 
633 6.358e+20 0 360.726 3.16651 0.00236425 0.118212 
634 1.7602e+21 0 721.139 17.5252 0.00105855 0.0529276 
635 9.208e+20 0 822.908 10.4616 0.00210805 0.105403 
636 6.607e+20 0 829.489 7.56655 0.0029452 0.14726 
637 7.873e+20 0 547.424 5.95042 0.00217284 0.108642 
638 1.6707e+21 0 436.146 10.0604 0.000954279 0.0477139 
639 1.29e+21 0 472.681 8.41862 0.00126711 0.0633555 
640 1.5925e+21 0 256.264 5.63443 0.000848988 0.0424494 
641 2.2989e+21 0 750.079 23.8073 0.000820448 0.0410224 
642 1.8436e+21 0 252.076 6.41624 0.000729619 0.0364809 
643 9.657e+20 0 404.928 5.39888 0.00161337 0.0806683 
644 1.5822e+21 0 575.458 12.5707 0.00109807 0.0549036 
645 1.0519e+21 0 202.531 2.94137 0.00119488 0.0597442 
646 2.2994e+21 0 256.692 8.14909 0.00058829 0.0294145 
647 1.5218e+21 0 274.787 5.77346 0.00090786 0.045393 
648 1.3281e+21 0 217.328 3.98502 0.000967305 0.0483652 
649 1.9782e+21 0 276.337 7.54732 0.000699623 0.0349812 
650 1.077e+21 0 213.64 3.17675 0.00118652 0.0593259 
651 1.8126e+21 0 202.706 5.07286 0.000693609 0.0346805 
652 1.1724e+21 0 94.0934 1.52306 0.000845309 0.0422655 
653 9.562e+20 0 206.856 2.73087 0.00132311 0.0661556 
654 7.52e+20 0 260.232 2.70186 0.00180648 0.0903238 
655 1.6819e+21 0 255.696 5.93755 0.000803308 0.0401654 
656 1.8655e+21 0 236.664 6.09553 0.000707089 0.0353544 
657 1.832e+21 0 282.241 7.13887 0.000760422 0.0380211 
658 1.5351e+21 0 399.68 8.47096 0.00101084 0.050542 
659 1.3246e+21 0 250.663 4.58415 0.00101373 0.0506864 
660 7.657e+20 0 178.182 1.88367 0.0015776 0.0788801 
661 1.4389e+21 0 231.305 4.59514 0.000910237 0.0455119 
662 9.032e+20 0 165.918 2.069 0.00130819 0.0654096 
663 1.0838e+21 0 899.788 13.4639 0.00184129 0.0920645 
664 2.4061e+21 0 1636.28 54.357 0.000998322 0.0499161 
665 1.8983e+21 0 1070.94 28.0681 0.00110956 0.055478 
666 1.9183e+21 0 683.359 18.0988 0.00095524 0.047762 
667 1.7235e+21 0 719.905 17.1305 0.00108052 0.0540259 
668 1.9096e+21 0 425.907 11.229 0.000828769 0.0414384 
669 3.0911e+21 0 503.343 21.4813 0.000539204 0.0269602 
670 1.4244e+21 0 262.164 5.15571 0.000955903 0.0477952 
671 1.5844e+21 0 680.394 14.8836 0.00115499 0.0577496 
672 1.7388e+21 0 726.591 17.4431 0.00107408 0.0537042 
673 9.609e+20 0 657.914 8.72832 0.0018847 0.094235 
674 2.0996e+21 0 463.896 13.4475 0.000774002 0.0387001 
675 1.8182e+21 0 366.804 9.20786 0.000831038 0.0415519 
676 9.23e+20 0 494.308 6.29916 0.00179567 0.0897833 
677 8.239e+20 0 449.532 5.1135 0.0019533 0.0976651 
678 5.652e+20 0 862.581 6.73109 0.00348485 0.174242 
679 8.18e+20 0 570.5 6.44306 0.00211823 0.105912 
680 1.8186e+21 0 455.634 11.4403 0.000888632 0.0444316 
681 1.4978e+21 0 494.908 10.2344 0.00110697 0.0553486 
682 1.2279e+21 0 534.249 9.05712 0.00138269 0.0691346 
683 1.2699e+21 0 436.149 7.64694 0.00125547 0.0627733 
684 1.6928e+21 0 487.905 11.4031 0.000975139 0.0487569 
685 2.6283e+21 0 326.056 11.8318 0.000554286 0.0277143 
686 1.993e+21 0 403.78 11.1105 0.000781062 0.0390531 
687 1.2039e+21 0 457.335 7.60166 0.00134391 0.0671955 
688 1.4411e+21 0 375.115 7.46348 0.00105581 0.0527904 
689 1.8648e+21 0 254.15 6.54344 0.000723159 0.036158 
690 1.4511e+21 0 162.118 3.24797 0.000808423 0.0404211 
691 1.5713e+21 0 308.355 6.68951 0.000911245 0.0455622 
692 2.7738e+21 0 418.895 16.0422 0.00056763 0.0283815 
693 1.7112e+21 0 385.752 9.11364 0.000896897 0.0448449 
694 1.5498e+21 0 286.909 6.13908 0.000903469 0.0451734 
695 8.205e+20 0 202.776 2.29709 0.00153244 0.0766222 
696 7.372e+20 0 202.277 2.0588 0.0017043 0.085215 
697 1.8642e+21 0 231.129 5.94881 0.00070241 0.0351205 
698 1.7454e+21 0 331.733 7.99405 0.000839146 0.0419573 
699 2.02e+21 0 339.032 9.45529 0.00072998 0.036499 
700 1.8964e+21 0 361.39 9.46215 0.000793105 0.0396553 
701 1.309e+21 0 291.551 5.26911 0.001075 0.0537502 
702 8.45e+20 0 337.381 3.93604 0.0017424 0.0871201 
703 1.3504e+21 0 252.157 4.70128 0.000996193 0.0498097 
704 1.5834e+21 0 328.041 7.17138 0.000921797 0.0460899 
705 1.1501e+21 0 167.802 2.66451 0.00103096 0.0515478 
706 1.1429e+21 0 190.951 3.01309 0.00107985 0.0539927 
707 1.3866e+21 0 288.262 5.51851 0.00101128 0.0505639 