ITEM: TIMESTEP
10000
ITEM: NUMBER OF CELLS
2500
ITEM: BOX BOUNDS oo rr pp
0 1.5
0 0.5
-0.5 0.5
ITEM: CELLS id f_1[1] f_1[2] f_1[3] f_1[4] f_1[5] f_1[6] f_1[7] f_5[1] f_5[2] f_1[8] 
1 1.1881e+21 7.88055e-05 1814.61 30.4079 38.618 0 0 202.53 3.32221 2.3762 
2 1.0056e+21 6.67004e-05 1864.45 -196.518 278.997 0 0 290.447 4.03251 2.0112 
3 1.6655e+21 0.000110471 1635.21 -53.704 114.894 0 0 184.436 4.24104 3.331 
4 1.8669e+21 0.00012383 1671.85 39.8582 -30.0698 0 0 276.354 7.12311 3.7338 
5 1.8238e+21 0.000120971 1563.03 33.7932 -90.9842 0 0 249.373 6.27929 3.6476 
6 1.1326e+21 7.51242e-05 1641.39 -15.2547 2.43919 0 0 273.406 4.27532 2.2652 
7 1.7102e+21 0.000113436 1724.92 26.0795 26.7631 0 0 286.606 6.76731 3.4204 
8 1.5375e+21 0.000101981 1874.54 19.0415 122.539 0 0 164.812 3.49854 3.075 
9 1.4859e+21 9.85583e-05 1752.04 -137.555 175.759 0 0 180.451 3.70196 2.9718 
10 1.453e+21 9.6376e-05 1850.7 29.2213 83.3279 0 0 196.373 3.93941 2.906 
11 1.5196e+21 0.000100794 1964.04 38.2859 84.0915 0 0 128.236 2.69043 3.0392 
12 1.5759e+21 0.000104528 1953.09 -114.403 83.4107 0 0 177.51 3.86219 3.1518 
13 1.6814e+21 0.000111526 673.299 12.0895 255.259 0 0 2080.61 48.2997 3.3628 
14 8.3448e+21 0.000553502 10.2861 -82.5146 412.734 0 0 1645.13 189.54 5.5632 
15 0 0 0 0 0 0 0 0 0 0 
16 0 0 0 0 0 0 0 0 0 0 
17 0 0 0 0 0 0 0 0 0 0 
18 0 0 0 0 0 0 0 0 0 0 
19 0 0 0 0 0 0 0 0 0 0 
20 0 0 0 0 0 0 0 0 0 0 
21 0 0 0 0 0 0 0 0 0 0 
22 0 0 0 0 0 0 0 0 0 0 
23 0 0 0 0 0 0 0 0 0 0 
24 0 0 0 0 0 0 0 0 0 0 
25 0 0 0 0 0 0 0 0 0 0 
26 0 0 0 0 0 0 0 0 0 0 
27 0 0 0 0 0 0 0 0 0 0 
28 0 0 0 0 0 0 0 0 0 0 
29 0 0 0 0 0 0 0 0 0 0 
30 0 0 0 0 0 0 0 0 0 0 
31 0 0 0 0 0 0 0 0 0 0 
32 0 0 0 0 0 0 0 0 0 0 
33 0 0 0 0 0 0 0 0 0 0 
34 0 0 0 0 0 0 0 0 0 0 
35 0 0 0 0 0 0 0 0 0 0 
36 0 0 0 0 0 0 0 0 0 0 
37 0 0 0 0 0 0 0 0 0 0 
38 0 0 0 0 0 0 0 0 0 0 
39 0 0 0 0 0 0 0 0 0 0 
40 0 0 0 0 0 0 0 0 0 0 
41 0 0 0 0 0 0 0 0 0 0 
42 2.151e+20 1.42674e-05 1565.04 -148.418 -76.81 0 0 75.545 0.224352 0.4302 
43 2.0134e+21 0.000133547 1562.45 34.83 3.24868 0 0 227.389 6.32095 4.0268 
44 1.2442e+21 8.25265e-05 1693.74 71.1126 81.958 0 0 307.06 5.27469 2.4884 
45 6.697e+20 4.44205e-05 1922.14 -2.89482 54.5646 0 0 217.48 2.01087 1.3394 
46 1.4677e+21 9.73511e-05 1803.2 -58.4741 -33.2564 0 0 142.727 2.89218 2.9354 
47 1.5962e+21 0.000105874 1789.33 58.4209 -15.744 0 0 170.554 3.75867 3.1924 
48 1.3151e+21 8.72293e-05 1794.07 160.278 -25.5949 0 0 258.35 4.69084 2.6302 
49 1.2955e+21 8.59292e-05 1701.81 -107.406 -147.604 0 0 276.02 4.93699 2.591 
50 1.5484e+21 0.000102704 1844.48 -35.6181 40.9628 0 0 359.577 7.68703 3.0968 
51 1.7061e+21 0.000113164 1733.9 8.08235 -167.021 0 0 156.119 3.67742 3.4122 
52 1.7116e+21 0.000113529 1644.26 -190.062 -230.438 0 0 208.477 4.92657 3.4232 
53 1.2934e+21 8.57899e-05 1643.37 -140.195 -23.4065 0 0 331.266 5.91552 2.5868 
54 1.3345e+21 8.85161e-05 1900.78 38.688 265.896 0 0 634.11 11.6833 2.669 
55 1.6714e+21 0.000110862 1875.67 25.5092 -1.64499 0 0 333.362 7.69273 3.3428 
56 1.7899e+21 0.000118722 1924.93 52.0333 -84.9897 0 0 195.504 4.83135 3.5798 
57 1.7873e+21 0.00011855 1883.73 -22.0967 -128.972 0 0 296.269 7.31082 3.5746 
58 2.4796e+21 0.000164469 1672.19 -104.569 -21.7121 0 0 359.125 12.2945 4.9592 
59 1.8883e+21 0.000125249 1710.41 -85.2343 18.7641 0 0 409.543 10.6771 3.7766 
60 1.9077e+21 0.000126536 1656.81 9.26122 -224.906 0 0 252.318 6.6457 3.8154 
61 1.5658e+21 0.000103858 1519.02 48.8094 -97.2844 0 0 209.643 4.53211 3.1316 
62 2.1613e+21 0.000143357 1508.37 -44.729 -144.314 0 0 190.099 5.67256 4.3226 
63 2.7683e+21 0.000183619 1250.02 33.0194 -322.085 0 0 1166.23 44.5741 5.5366 
64 8.7825e+21 0.000582534 137.901 -88.3517 66.1222 0 0 1527.77 185.251 5.855 
65 0 0 0 0 0 0 0 0 0 0 
66 0 0 0 0 0 0 0 0 0 0 
67 0 0 0 0 0 0 0 0 0 0 
68 0 0 0 0 0 0 0 0 0 0 
69 0 0 0 0 0 0 0 0 0 0 
70 0 0 0 0 0 0 0 0 0 0 
71 0 0 0 0 0 0 0 0 0 0 
72 0 0 0 0 0 0 0 0 0 0 
73 0 0 0 0 0 0 0 0 0 0 
74 0 0 0 0 0 0 0 0 0 0 
75 0 0 0 0 0 0 0 0 0 0 
76 0 0 0 0 0 0 0 0 0 0 
77 0 0 0 0 0 0 0 0 0 0 
78 0 0 0 0 0 0 0 0 0 0 
79 0 0 0 0 0 0 0 0 0 0 
80 0 0 0 0 0 0 0 0 0 0 
81 0 0 0 0 0 0 0 0 0 0 
82 0 0 0 0 0 0 0 0 0 0 
83 0 0 0 0 0 0 0 0 0 0 
84 0 0 0 0 0 0 0 0 0 0 
85 0 0 0 0 0 0 0 0 0 0 
86 0 0 0 0 0 0 0 0 0 0 
87 0 0 0 0 0 0 0 0 0 0 
88 0 0 0 0 0 0 0 0 0 0 
89 0 0 0 0 0 0 0 0 0 0 
90 0 0 0 0 0 0 0 0 0 0 
91 0 0 0 0 0 0 0 0 0 0 
92 1.9e+19 1.26025e-06 1707.31 -365.231 160.354 0 0 -1.01807e-11 -2.67062e-15 0.038 
93 5.629e+20 3.73366e-05 1642.74 -337.129 143.834 0 0 21.8056 0.169466 1.1258 
94 1.4091e+21 9.34642e-05 1676.89 -15.8066 10.9183 0 0 339.636 6.60752 2.8182 
95 2.3174e+21 0.000153711 1779.89 48.4489 -27.7228 0 0 190.647 6.09977 4.6348 
96 1.6319e+21 0.000108242 1837.33 24.1938 1.14286 0 0 115.797 2.609 3.2638 
97 1.1651e+21 7.72799e-05 1743.26 -61.9097 -113.467 0 0 122.157 1.96501 2.3302 
98 2.0673e+21 0.000137122 1656.85 30.3325 6.30248 0 0 197.613 5.64031 4.1346 
99 2.4476e+21 0.000162347 1779.42 -68.0347 15.0252 0 0 335.488 11.3371 4.8952 
100 1.4806e+21 9.82067e-05 1587.42 -43.7084 -16.9027 0 0 364.385 7.44871 2.9612 
101 1.6388e+21 0.0001087 1716.86 83.8362 219.2 0 0 402.652 9.11043 3.2776 
102 1.034e+21 6.85842e-05 1908.12 -5.03029 102.088 0 0 183.88 2.62506 2.068 
103 1.132e+21 7.50844e-05 1806.97 16.7145 -22.2236 0 0 173.255 2.7078 2.264 
104 1.2702e+21 8.42511e-05 1699.89 123.256 168.934 0 0 361.855 6.34585 2.5404 
105 8.205e+20 5.44229e-05 1748.26 133.484 34.5983 0 0 424.374 4.8074 1.641 
106 1.0192e+21 6.76025e-05 1702.99 -104.388 32.781 0 0 346.612 4.87737 2.0384 
107 1.1314e+21 7.50446e-05 1845.05 -164.336 3.62427 0 0 182.944 2.85771 2.2628 
108 1.6598e+21 0.000110093 1515.21 15.6422 -78.5083 0 0 195.192 4.47302 3.3196 
109 1.3128e+21 8.70767e-05 1806.5 72.8148 126.376 0 0 249.902 4.52952 2.6256 
110 1.589e+21 0.000105397 1829.02 -27.1925 -8.9921 0 0 382.009 8.38071 3.178 
111 1.6697e+21 0.00011075 1759.66 17.718 6.19968 0 0 209.017 4.8184 3.3394 
112 1.4476e+21 9.60179e-05 1759.66 50.8756 27.2636 0 0 222.222 4.44139 2.8952 
113 1.6775e+21 0.000111267 576.422 -267.994 -259.855 0 0 2219.96 51.4152 3.355 
114 7.458e+21 0.000494682 94.3047 28.5957 24.9627 0 0 1040 107.088 4.972 
115 0 0 0 0 0 0 0 0 0 0 
116 0 0 0 0 0 0 0 0 0 0 
117 0 0 0 0 0 0 0 0 0 0 
118 0 0 0 0 0 0 0 0 0 0 
119 0 0 0 0 0 0 0 0 0 0 
120 0 0 0 0 0 0 0 0 0 0 
121 0 0 0 0 0 0 0 0 0 0 
122 0 0 0 0 0 0 0 0 0 0 
123 0 0 0 0 0 0 0 0 0 0 
124 0 0 0 0 0 0 0 0 0 0 
125 0 0 0 0 0 0 0 0 0 0 
126 0 0 0 0 0 0 0 0 0 0 
127 0 0 0 0 0 0 0 0 0 0 
128 0 0 0 0 0 0 0 0 0 0 
129 0 0 0 0 0 0 0 0 0 0 
130 0 0 0 0 0 0 0 0 0 0 
131 0 0 0 0 0 0 0 0 0 0 
132 0 0 0 0 0 0 0 0 0 0 
133 0 0 0 0 0 0 0 0 0 0 
134 0 0 0 0 0 0 0 0 0 0 
135 0 0 0 0 0 0 0 0 0 0 
136 0 0 0 0 0 0 0 0 0 0 
137 0 0 0 0 0 0 0 0 0 0 
138 0 0 0 0 0 0 0 0 0 0 
139 0 0 0 0 0 0 0 0 0 0 
140 0 0 0 0 0 0 0 0 0 0 
141 0 0 0 0 0 0 0 0 0 0 
142 4.651e+20 3.08496e-05 1587.29 49.799 -434.523 0 0 345.783 2.22041 0.9302 
143 2.0931e+21 0.000138833 1672.46 -81.4561 -212.938 0 0 258.245 7.46286 4.1862 
144 1.751e+21 0.000116142 1594.08 -70.7528 -42.9015 0 0 402.741 9.73632 3.502 
145 7.274e+20 4.82477e-05 1824.57 144.298 123.243 0 0 100.459 1.0089 1.4548 
146 1.4413e+21 9.56e-05 1759.49 32.1507 44.0825 0 0 162.978 3.24314 2.8826 
147 1.634e+21 0.000108382 1713.02 181.628 29.4911 0 0 160.048 3.61064 3.268 
148 1.9595e+21 0.000129972 1646.52 -48.3718 -78.8779 0 0 385.586 10.4316 3.919 
149 1.5535e+21 0.000103042 1692.33 -83.402 106.264 0 0 333.14 7.14531 3.107 
150 1.6331e+21 0.000108322 1755.72 72.4737 -41.453 0 0 323.629 7.29698 3.2662 
151 4.698e+20 3.11614e-05 1735.94 284.115 -77.9241 0 0 175.023 1.13525 0.9396 
152 5.405e+20 3.58508e-05 1823.95 184.372 167.464 0 0 529.967 3.95483 1.081 
153 7.811e+20 5.18096e-05 1857.82 -91.4211 89.3927 0 0 278.356 3.00187 1.5622 
154 1.5162e+21 0.000100568 1808.58 -188.753 -16.5092 0 0 124.738 2.61119 3.0324 
155 2.5976e+21 0.000172296 1717.31 -26.8826 -105.374 0 0 306.367 10.9875 5.1952 
156 1.4989e+21 9.94205e-05 1830.39 -19.0579 21.9072 0 0 212.361 4.39472 2.9978 
157 1.4165e+21 9.3955e-05 1654.89 -132.026 -53.5589 0 0 190.446 3.72452 2.833 
158 5.988e+20 3.97178e-05 1733.6 3.35677 216.86 0 0 107.847 0.891605 1.1976 
159 1.201e+21 7.96611e-05 1755.22 -22.5569 -4.3488 0 0 316.483 5.2478 2.402 
160 1.6528e+21 0.000109629 1695.88 -90.5065 34.0588 0 0 256.781 5.85958 3.3056 
161 1.3571e+21 9.00151e-05 1560.32 92.4609 162.233 0 0 181.238 3.39582 2.7142 
162 1.9919e+21 0.000132121 1501.77 31.5205 67.3013 0 0 140.41 3.86143 3.9838 
163 3.1061e+21 0.000206025 490.29 -246.523 32.9175 0 0 2286.55 98.0573 6.2122 
164 1.25262e+22 0.00083085 -5.16176 -1.7064 36.0112 0 0 1029.08 177.973 8.3508 
165 0 0 0 0 0 0 0 0 0 0 
166 0 0 0 0 0 0 0 0 0 0 
167 0 0 0 0 0 0 0 0 0 0 
168 0 0 0 0 0 0 0 0 0 0 
169 0 0 0 0 0 0 0 0 0 0 
170 0 0 0 0 0 0 0 0 0 0 
171 0 0 0 0 0 0 0 0 0 0 
172 0 0 0 0 0 0 0 0 0 0 
173 0 0 0 0 0 0 0 0 0 0 
174 0 0 0 0 0 0 0 0 0 0 
175 0 0 0 0 0 0 0 0 0 0 
176 0 0 0 0 0 0 0 0 0 0 
177 0 0 0 0 0 0 0 0 0 0 
178 0 0 0 0 0 0 0 0 0 0 
179 0 0 0 0 0 0 0 0 0 0 
180 0 0 0 0 0 0 0 0 0 0 
181 0 0 0 0 0 0 0 0 0 0 
182 0 0 0 0 0 0 0 0 0 0 
183 0 0 0 0 0 0 0 0 0 0 
184 0 0 0 0 0 0 0 0 0 0 
185 0 0 0 0 0 0 0 0 0 0 
186 0 0 0 0 0 0 0 0 0 0 
187 0 0 0 0 0 0 0 0 0 0 
188 0 0 0 0 0 0 0 0 0 0 
189 0 0 0 0 0 0 0 0 0 0 
190 0 0 0 0 0 0 0 0 0 0 
191 0 0 0 0 0 0 0 0 0 0 
192 0 0 0 0 0 0 0 0 0 0 
193 5.967e+20 3.95785e-05 1603.09 59.8367 10.6517 0 0 302.557 2.49257 1.1934 
194 1.4505e+21 9.62102e-05 1615.91 92.7604 -70.7086 0 0 230.047 4.60699 2.901 
195 1.1481e+21 7.61523e-05 1872.34 -53.5819 58.6233 0 0 114.42 1.8137 2.2962 
196 6.217e+20 4.12367e-05 1592.48 13.3082 192.34 0 0 100.651 0.863939 1.2434 
197 1.0891e+21 7.22389e-05 1670.14 127.628 157.65 0 0 171.961 2.58571 2.1782 
198 9.287e+20 6.15997e-05 1699.22 -26.9093 83.1632 0 0 182.868 2.34475 1.8574 
199 9.404e+20 6.23758e-05 1624.76 45.9133 2.97594 0 0 51.2545 0.665469 1.8808 
200 1.3431e+21 8.90865e-05 1709.36 -41.4972 -68.7734 0 0 103.928 1.9272 2.6862 
201 1.1139e+21 7.38839e-05 2161.66 97.6651 -283.311 0 0 191.151 2.93972 2.2278 
202 1.503e+21 9.96925e-05 1786.58 143.481 -127.103 0 0 352.211 7.30878 3.006 
203 2.0266e+21 0.000134422 1720.48 79.3216 93.5181 0 0 298.106 8.34107 4.0532 
204 1.1213e+21 7.43747e-05 1658.96 -67.4936 3.77292 0 0 200.511 3.10415 2.2426 
205 8.753e+20 5.80578e-05 1857.57 -90.9189 269.845 0 0 439.848 5.31548 1.7506 
206 2.4352e+21 0.000161524 1764.83 -15.0001 -10.0381 0 0 143.262 4.81668 4.8704 
207 1.3942e+21 9.24759e-05 1665.99 -50.3075 -22.7433 0 0 257.612 4.95877 2.7884 
208 2.28e+21 0.00015123 1732.13 -16.2282 -74.5629 0 0 428.361 13.4843 4.56 
209 2.0214e+21 0.000134077 1784.74 55.7167 13.6287 0 0 271.75 7.58413 4.0428 
210 2.0532e+21 0.000136187 1584.14 -45.7728 131.396 0 0 321.291 9.10778 4.1064 
211 7.661e+20 5.08146e-05 1570.91 -33.0839 -84.4608 0 0 279.653 2.95793 1.5322 
212 1.7374e+21 0.00011524 1718.75 -43.8947 -164.073 0 0 330.499 7.9278 3.4748 
213 2.504e+21 0.000166088 962.24 102.33 -120.855 0 0 1749.31 60.4761 5.008 
214 5.0757e+21 0.000336666 119.947 -113.817 325.588 0 0 1078.83 75.6017 3.3838 
215 0 0 0 0 0 0 0 0 0 0 
216 0 0 0 0 0 0 0 0 0 0 
217 0 0 0 0 0 0 0 0 0 0 
218 0 0 0 0 0 0 0 0 0 0 
219 0 0 0 0 0 0 0 0 0 0 
220 0 0 0 0 0 0 0 0 0 0 
221 0 0 0 0 0 0 0 0 0 0 
222 0 0 0 0 0 0 0 0 0 0 
223 0 0 0 0 0 0 0 0 0 0 
224 0 0 0 0 0 0 0 0 0 0 
225 0 0 0 0 0 0 0 0 0 0 
226 0 0 0 0 0 0 0 0 0 0 
227 0 0 0 0 0 0 0 0 0 0 
228 0 0 0 0 0 0 0 0 0 0 
229 0 0 0 0 0 0 0 0 0 0 
230 0 0 0 0 0 0 0 0 0 0 
231 0 0 0 0 0 0 0 0 0 0 
232 0 0 0 0 0 0 0 0 0 0 
233 0 0 0 0 0 0 0 0 0 0 
234 0 0 0 0 0 0 0 0 0 0 
235 0 0 0 0 0 0 0 0 0 0 
236 0 0 0 0 0 0 0 0 0 0 
237 0 0 0 0 0 0 0 0 0 0 
238 0 0 0 0 0 0 0 0 0 0 
239 0 0 0 0 0 0 0 0 0 0 
240 0 0 0 0 0 0 0 0 0 0 
241 0 0 0 0 0 0 0 0 0 0 
242 0 0 0 0 0 0 0 0 0 0 
243 5.028e+20 3.33502e-05 1750.55 41.617 233.003 0 0 223.932 1.55452 1.0056 
244 1.7957e+21 0.000119107 1779.89 41.9255 50.3333 0 0 266.813 6.6149 3.5914 
245 1.1691e+21 7.75452e-05 1875.94 47.4057 -89.347 0 0 152.134 2.45562 2.3382 
246 1.5134e+21 0.000100382 1627.19 51.5299 -8.16988 0 0 162.252 3.39022 3.0268 
247 1.3018e+21 8.63471e-05 1700.77 96.0032 -107.864 0 0 138.352 2.48663 2.6036 
248 1.5288e+21 0.000101404 1676.13 180.428 104.509 0 0 84.2968 1.77928 3.0576 
249 9.008e+20 5.97492e-05 1786.52 27.6773 -1.26397 0 0 340.439 4.23401 1.8016 
250 1.3448e+21 8.91992e-05 1794.6 -257.582 -114.759 0 0 171.019 3.1753 2.6896 
251 1.8064e+21 0.000119817 1746.64 -30.9403 151.156 0 0 198.328 4.94632 3.6128 
252 1.6425e+21 0.000108945 1824.6 -49.897 103.336 0 0 246.872 5.59835 3.285 
253 1.7465e+21 0.000115844 1814.46 -6.33397 103.375 0 0 147.49 3.55642 3.493 
254 1.0583e+21 7.0196e-05 1749.73 -112.759 -117.313 0 0 178.602 2.60962 2.1166 
255 1.0801e+21 7.1642e-05 1888.81 -191.932 -274.193 0 0 200.164 2.98492 2.1602 
256 1.0038e+21 6.65811e-05 1726.76 -293.177 -42.1184 0 0 131.165 1.81781 2.0076 
257 1.2237e+21 8.11668e-05 1758.05 55.9247 161.859 0 0 237.414 4.0111 2.4474 
258 7.353e+20 4.87717e-05 2155.08 -11.3253 -10.9943 0 0 336.353 3.41462 1.4706 
259 1.5822e+21 0.000104946 1881.2 -159.689 -95.4373 0 0 414.083 9.04549 3.1644 
260 1.1358e+21 7.53365e-05 1823.68 -71.9768 -61.6875 0 0 326.416 5.11866 2.2716 
261 1.248e+21 8.27786e-05 1831.45 -140.395 -44.4322 0 0 223.82 3.85653 2.496 
262 1.2233e+21 8.11403e-05 1678.52 -173.173 -80.4741 0 0 212.766 3.59351 2.4466 
263 2.206e+21 0.000146322 1053.94 443.942 197.588 0 0 1827.51 55.6607 4.412 
264 7.8246e+21 0.000518998 -120.515 -55.1509 -77.8519 0 0 808.517 87.3443 5.2164 
265 0 0 0 0 0 0 0 0 0 0 
266 0 0 0 0 0 0 0 0 0 0 
267 0 0 0 0 0 0 0 0 0 0 
268 0 0 0 0 0 0 0 0 0 0 
269 0 0 0 0 0 0 0 0 0 0 
270 0 0 0 0 0 0 0 0 0 0 
271 0 0 0 0 0 0 0 0 0 0 
272 0 0 0 0 0 0 0 0 0 0 
273 0 0 0 0 0 0 0 0 0 0 
274 0 0 0 0 0 0 0 0 0 0 
275 0 0 0 0 0 0 0 0 0 0 
276 0 0 0 0 0 0 0 0 0 0 
277 0 0 0 0 0 0 0 0 0 0 
278 0 0 0 0 0 0 0 0 0 0 
279 0 0 0 0 0 0 0 0 0 0 
280 0 0 0 0 0 0 0 0 0 0 
281 0 0 0 0 0 0 0 0 0 0 
282 0 0 0 0 0 0 0 0 0 0 
283 0 0 0 0 0 0 0 0 0 0 
284 0 0 0 0 0 0 0 0 0 0 
285 0 0 0 0 0 0 0 0 0 0 
286 0 0 0 0 0 0 0 0 0 0 
287 0 0 0 0 0 0 0 0 0 0 
288 0 0 0 0 0 0 0 0 0 0 
289 0 0 0 0 0 0 0 0 0 0 
290 0 0 0 0 0 0 0 0 0 0 
291 0 0 0 0 0 0 0 0 0 0 
292 1.705e+20 1.13091e-05 1789.1 346.397 290.718 0 0 32.195 0.0757871 0.341 
293 7.234e+20 4.79824e-05 1913.07 0.172942 143.922 0 0 109.348 1.09212 1.4468 
294 1.0327e+21 6.8498e-05 1855.45 105.85 35.7385 0 0 93.0072 1.32609 2.0654 
295 1.7633e+21 0.000116958 1693.06 58.7636 -33.698 0 0 203.166 4.94607 3.5266 
296 1.6327e+21 0.000108295 1637.38 1.55348 -92.4731 0 0 137.457 3.09854 3.2654 
297 2.0033e+21 0.000132877 1716.1 0.186278 167.163 0 0 207.985 5.75257 4.0066 
298 1.3567e+21 8.99886e-05 1660.68 -26.1689 129.446 0 0 211.238 3.95676 2.7134 
299 1.2633e+21 8.37934e-05 1765.02 -15.4551 16.4701 0 0 309.641 5.40067 2.5266 
300 2.0007e+21 0.000132704 1776.97 -21.5694 78.8888 0 0 273.518 7.55529 4.0014 
301 2.5517e+21 0.000169252 1718.18 -77.1308 219.703 0 0 281.891 9.93103 5.1034 
302 1.8132e+21 0.000120268 1701.43 -87.4454 -48.352 0 0 256.813 6.42904 3.6264 
303 1.0736e+21 7.12108e-05 1843.72 42.9713 95.2991 0 0 343.734 5.09505 2.1472 
304 1.7165e+21 0.000113854 1815.2 59.384 -48.1012 0 0 357.129 8.46354 3.433 
305 1.6604e+21 0.000110133 1694.61 -98.565 -137.958 0 0 234.31 5.3714 3.3208 
306 2.1734e+21 0.000144159 1653.52 -53.9179 -213.901 0 0 204.29 6.13014 4.3468 
307 1.9209e+21 0.000127411 1668.26 88.5915 -178.166 0 0 256.904 6.81333 3.8418 
308 1.9264e+21 0.000127776 1888.46 -4.07726 -122.708 0 0 493.434 13.1238 3.8528 
309 1.4218e+21 9.43066e-05 2089.91 -30.1845 71.7377 0 0 227.767 4.47108 2.8436 
310 2.2942e+21 0.000152172 1842.5 -122.968 11.0524 0 0 204.469 6.47652 4.5884 
311 2.2901e+21 0.0001519 1731.82 -54.3213 -124.646 0 0 231.303 7.3134 4.5802 
312 8.049e+20 5.33882e-05 1872.15 -77.2934 -3.42863 0 0 86.8479 0.965127 1.6098 
313 1.7319e+21 0.000114875 1129.96 394.469 65.6696 0 0 1341.45 32.0761 3.4638 
314 7.2378e+21 0.000480076 132.646 -26.4593 -150.197 0 0 1586.46 158.533 4.8252 
315 0 0 0 0 0 0 0 0 0 0 
316 0 0 0 0 0 0 0 0 0 0 
317 0 0 0 0 0 0 0 0 0 0 
318 0 0 0 0 0 0 0 0 0 0 
319 0 0 0 0 0 0 0 0 0 0 
320 0 0 0 0 0 0 0 0 0 0 
321 0 0 0 0 0 0 0 0 0 0 
322 0 0 0 0 0 0 0 0 0 0 
323 0 0 0 0 0 0 0 0 0 0 
324 0 0 0 0 0 0 0 0 0 0 
325 0 0 0 0 0 0 0 0 0 0 
326 0 0 0 0 0 0 0 0 0 0 
327 0 0 0 0 0 0 0 0 0 0 
328 0 0 0 0 0 0 0 0 0 0 
329 0 0 0 0 0 0 0 0 0 0 
330 0 0 0 0 0 0 0 0 0 0 
331 0 0 0 0 0 0 0 0 0 0 
332 0 0 0 0 0 0 0 0 0 0 
333 0 0 0 0 0 0 0 0 0 0 
334 0 0 0 0 0 0 0 0 0 0 
335 0 0 0 0 0 0 0 0 0 0 
336 0 0 0 0 0 0 0 0 0 0 
337 0 0 0 0 0 0 0 0 0 0 
338 0 0 0 0 0 0 0 0 0 0 
339 0 0 0 0 0 0 0 0 0 0 
340 0 0 0 0 0 0 0 0 0 0 
341 0 0 0 0 0 0 0 0 0 0 
342 1.429e+20 9.47841e-06 1938.31 -127.061 -15.2546 0 0 19.2874 0.038053 0.2858 
343 1.4444e+21 9.58056e-05 1725.71 66.9318 119.375 0 0 133.279 2.65786 2.8888 
344 2.1259e+21 0.000141009 1646.3 -91.7874 -15.917 0 0 225.534 6.6197 4.2518 
345 1.4956e+21 9.92017e-05 1633.87 63.1061 -63.3474 0 0 181.031 3.7381 2.9912 
346 1.5738e+21 0.000104389 1885.04 24.8517 64.1934 0 0 120.739 2.62349 3.1476 
347 1.3418e+21 8.90003e-05 1772.87 6.15352 -25.7978 0 0 203.345 3.76708 2.6836 
348 2.0588e+21 0.000136558 1660.57 27.8205 209.581 0 0 311.767 8.86191 4.1176 
349 1.5872e+21 0.000105277 1615.47 -33.1059 -6.8932 0 0 330.306 7.23822 3.1744 
350 7.142e+20 4.73722e-05 1752.18 77.058 236.601 0 0 433.576 4.27531 1.4284 
351 1.8084e+21 0.000119949 1614.67 10.9047 14.9181 0 0 271.767 6.78539 3.6168 
352 6.653e+20 4.41287e-05 1609.25 67.5037 -52.6433 0 0 136.641 1.25511 1.3306 
353 8.639e+20 5.73016e-05 1851.44 254.115 218.107 0 0 253.841 3.02767 1.7278 
354 1.5888e+21 0.000105384 1734.52 153.798 -60.9931 0 0 326.553 7.16319 3.1776 
355 1.5936e+21 0.000105702 1778.12 -87.8416 72.1598 0 0 310.973 6.84203 3.1872 
356 6.385e+20 4.23511e-05 1691.37 -38.3996 -106.635 0 0 189.841 1.67353 1.277 
357 3.555e+20 2.358e-05 1892.98 48.9498 -94.444 0 0 188.654 0.925954 0.711 
358 2.1189e+21 0.000140545 1730.07 -0.0826133 63.0363 0 0 184.413 5.39493 4.2378 
359 1.9004e+21 0.000126052 1963.89 157.346 -14.1352 0 0 295.784 7.76073 3.8008 
360 1.1922e+21 7.90774e-05 1527.92 -5.36294 -173.451 0 0 483.354 7.95606 2.3844 
361 9.763e+20 6.4757e-05 1651.73 -9.21248 87.0499 0 0 661.212 8.91266 1.9526 
362 1.4357e+21 9.52285e-05 1805.37 -61.0884 -77.0902 0 0 529.736 10.5004 2.8714 
363 2.1372e+21 0.000141758 1531.69 91.159 48.9189 0 0 1069.79 31.5665 4.2744 
364 1.15215e+22 0.00076421 108.658 305.502 -81.9226 0 0 1487.71 236.653 7.681 
365 0 0 0 0 0 0 0 0 0 0 
366 0 0 0 0 0 0 0 0 0 0 
367 0 0 0 0 0 0 0 0 0 0 
368 0 0 0 0 0 0 0 0 0 0 
369 0 0 0 0 0 0 0 0 0 0 
370 0 0 0 0 0 0 0 0 0 0 
371 0 0 0 0 0 0 0 0 0 0 
372 0 0 0 0 0 0 0 0 0 0 
373 0 0 0 0 0 0 0 0 0 0 
374 0 0 0 0 0 0 0 0 0 0 
375 0 0 0 0 0 0 0 0 0 0 
376 0 0 0 0 0 0 0 0 0 0 
377 0 0 0 0 0 0 0 0 0 0 
378 0 0 0 0 0 0 0 0 0 0 
379 0 0 0 0 0 0 0 0 0 0 
380 0 0 0 0 0 0 0 0 0 0 
381 0 0 0 0 0 0 0 0 0 0 
382 0 0 0 0 0 0 0 0 0 0 
383 0 0 0 0 0 0 0 0 0 0 
384 0 0 0 0 0 0 0 0 0 0 
385 0 0 0 0 0 0 0 0 0 0 
386 0 0 0 0 0 0 0 0 0 0 
387 0 0 0 0 0 0 0 0 0 0 
388 0 0 0 0 0 0 0 0 0 0 
389 0 0 0 0 0 0 0 0 0 0 
390 0 0 0 0 0 0 0 0 0 0 
391 0 0 0 0 0 0 0 0 0 0 
392 2.427e+20 1.6098e-05 1572.93 230.466 265.339 0 0 93.1171 0.31202 0.4854 
393 1.6122e+21 0.000106936 1664.05 23.2504 79.2739 0 0 211.948 4.71772 3.2244 
394 1.1006e+21 7.30017e-05 1796.24 -105.701 -19.6367 0 0 187.367 2.84711 2.2012 
395 2.1424e+21 0.000142103 1691.61 105.458 15.7584 0 0 211.368 6.25205 4.2848 
396 2.1423e+21 0.000142097 1794.96 101.349 8.14478 0 0 264.273 7.81656 4.2846 
397 1.7909e+21 0.000118789 1622.92 116.883 -96.3801 0 0 169.187 4.18332 3.5818 
398 1.0957e+21 7.26767e-05 1903.79 -12.3587 94.2956 0 0 135.423 2.04865 2.1914 
399 1.7055e+21 0.000113124 1558.1 -106.4 -97.833 0 0 264.544 6.2292 3.411 
400 2.1469e+21 0.000142402 1759.96 -135.023 83.8563 0 0 312.092 9.25076 4.2938 
401 9.213e+20 6.11089e-05 1922.52 263.37 -70.6248 0 0 144.946 1.8437 1.8426 
402 6.907e+20 4.58134e-05 1763.1 54.3495 71.8228 0 0 288.337 2.74962 1.3814 
403 2.1624e+21 0.00014343 1640.66 18.947 -47.5232 0 0 370.125 11.0502 4.3248 
404 1.7501e+21 0.000116082 1592.28 2.29333 -44.0862 0 0 240.192 5.80369 3.5002 
405 4.214e+20 2.7951e-05 1707 12.1153 -169.218 0 0 195.881 1.13965 0.8428 
406 1.3552e+21 8.98891e-05 1642.79 -122.918 -15.6192 0 0 107.855 2.01803 2.7104 
407 2.4022e+21 0.000159336 1671.34 -89.9189 -17.6262 0 0 180.999 6.003 4.8044 
408 1.6839e+21 0.000111691 1747.02 -83.4126 -103.807 0 0 129.085 3.00106 3.3678 
409 1.0368e+21 6.87699e-05 1992.65 -83.3034 -183.65 0 0 253.03 3.62201 2.0736 
410 1.6593e+21 0.00011006 1861.26 149.378 -16.9205 0 0 440.299 10.0869 3.3186 
411 1.3029e+21 8.64201e-05 1766.29 -4.04798 37.2374 0 0 499.085 8.97777 2.6058 
412 2.0002e+21 0.000132671 1645.88 -109.289 162.312 0 0 257.262 7.10449 4.0004 
413 1.4283e+21 9.47377e-05 760.145 85.8927 181.183 0 0 2874.91 56.6928 2.8566 
414 1.05543e+22 0.000700056 54.4808 190.366 42.5079 0 0 1468.75 214.023 7.0362 
415 0 0 0 0 0 0 0 0 0 0 
416 0 0 0 0 0 0 0 0 0 0 
417 0 0 0 0 0 0 0 0 0 0 
418 0 0 0 0 0 0 0 0 0 0 
419 0 0 0 0 0 0 0 0 0 0 
420 0 0 0 0 0 0 0 0 0 0 
421 0 0 0 0 0 0 0 0 0 0 
422 0 0 0 0 0 0 0 0 0 0 
423 0 0 0 0 0 0 0 0 0 0 
424 0 0 0 0 0 0 0 0 0 0 
425 0 0 0 0 0 0 0 0 0 0 
426 0 0 0 0 0 0 0 0 0 0 
427 0 0 0 0 0 0 0 0 0 0 
428 0 0 0 0 0 0 0 0 0 0 
429 0 0 0 0 0 0 0 0 0 0 
430 0 0 0 0 0 0 0 0 0 0 
431 0 0 0 0 0 0 0 0 0 0 
432 0 0 0 0 0 0 0 0 0 0 
433 0 0 0 0 0 0 0 0 0 0 
434 0 0 0 0 0 0 0 0 0 0 
435 0 0 0 0 0 0 0 0 0 0 
436 0 0 0 0 0 0 0 0 0 0 
437 0 0 0 0 0 0 0 0 0 0 
438 0 0 0 0 0 0 0 0 0 0 
439 0 0 0 0 0 0 0 0 0 0 
440 0 0 0 0 0 0 0 0 0 0 
441 0 0 0 0 0 0 0 0 0 0 
442 2.13e+19 1.41281e-06 2007.59 337.558 -24.0096 0 0 -2.51483e-11 -7.39557e-15 0.0426 
443 1.0282e+21 6.81995e-05 1639.26 65.4104 21.682 0 0 257.368 3.65355 2.0564 
444 1.8596e+21 0.000123345 1534.53 -20.2197 -58.4691 0 0 265.528 6.8173 3.7192 
445 8.348e+20 5.53714e-05 1512.1 78.2084 -73.6774 0 0 96.701 1.11454 1.6696 
446 1.0721e+21 7.11113e-05 1662.89 107.079 -13.5848 0 0 91.3578 1.35227 2.1442 
447 7.611e+20 5.0483e-05 1740.6 74.2794 91.2884 0 0 251.871 2.64669 1.5222 
448 1.5177e+21 0.000100668 1710.94 -12.2017 111.956 0 0 144.126 3.02004 3.0354 
449 1.1724e+21 7.77641e-05 1866.7 -19.1558 37.1114 0 0 119.346 1.93182 2.3448 
450 1.2387e+21 8.21617e-05 1924.67 -9.33542 -32.4814 0 0 236.655 4.04729 2.4774 
451 1.3231e+21 8.77599e-05 1767.47 52.0637 -124.925 0 0 160.245 2.92725 2.6462 
452 1.0066e+21 6.67668e-05 1721.11 -94.7594 -15.4276 0 0 153.66 2.13551 2.0132 
453 1.2648e+21 8.38929e-05 1726.67 128.141 4.92894 0 0 246.654 4.30718 2.5296 
454 2.0395e+21 0.000135278 1905.21 39.5557 49.0422 0 0 325.975 9.17891 4.079 
455 1.3825e+21 9.16998e-05 1840.86 98.5825 64.8745 0 0 253.69 4.8423 2.765 
456 9.764e+20 6.47636e-05 1968.28 -124.09 -34.3172 0 0 252.981 3.41035 1.9528 
457 9.898e+20 6.56524e-05 1979.84 -110.851 -105.572 0 0 172.05 2.35118 1.9796 
458 1.3083e+21 8.67782e-05 1843.24 -167.106 48.7494 0 0 264.046 4.76947 2.6166 
459 1.2796e+21 8.48746e-05 1642.76 -92.4724 -56.1108 0 0 247.421 4.37113 2.5592 
460 1.7437e+21 0.000115658 1656.18 106.072 -7.39575 0 0 239.864 5.77458 3.4874 
461 1.4902e+21 9.88435e-05 1627.53 172.448 56.7111 0 0 222.793 4.58383 2.9804 
462 1.9685e+21 0.000130569 1601.14 -5.79119 -120.288 0 0 259.559 7.0543 3.937 
463 1.6301e+21 0.000108123 593.679 48.1847 -47.9718 0 0 1556.36 35.0273 3.2602 
464 5.2521e+21 0.000348367 23.2908 106.427 24.6765 0 0 877.687 63.6438 3.5014 
465 0 0 0 0 0 0 0 0 0 0 
466 0 0 0 0 0 0 0 0 0 0 
467 0 0 0 0 0 0 0 0 0 0 
468 0 0 0 0 0 0 0 0 0 0 
469 0 0 0 0 0 0 0 0 0 0 
470 0 0 0 0 0 0 0 0 0 0 
471 0 0 0 0 0 0 0 0 0 0 
472 0 0 0 0 0 0 0 0 0 0 
473 0 0 0 0 0 0 0 0 0 0 
474 0 0 0 0 0 0 0 0 0 0 
475 0 0 0 0 0 0 0 0 0 0 
476 0 0 0 0 0 0 0 0 0 0 
477 0 0 0 0 0 0 0 0 0 0 
478 0 0 0 0 0 0 0 0 0 0 
479 0 0 0 0 0 0 0 0 0 0 
480 0 0 0 0 0 0 0 0 0 0 
481 0 0 0 0 0 0 0 0 0 0 
482 0 0 0 0 0 0 0 0 0 0 
483 0 0 0 0 0 0 0 0 0 0 
484 0 0 0 0 0 0 0 0 0 0 
485 0 0 0 0 0 0 0 0 0 0 
486 0 0 0 0 0 0 0 0 0 0 
487 0 0 0 0 0 0 0 0 0 0 
488 0 0 0 0 0 0 0 0 0 0 
489 0 0 0 0 0 0 0 0 0 0 
490 0 0 0 0 0 0 0 0 0 0 
491 2.36e+19 1.56536e-06 826.65 -688.78 164.81 0 0 1.48164e-11 4.82766e-15 0.0472 
492 3.143e+20 2.08472e-05 940.103 -586.511 121.996 0 0 228.107 0.989841 0.6286 
493 1.5865e+21 0.000105231 1826.77 24.8663 168.759 0 0 239.693 5.25024 3.173 
494 2.6805e+21 0.000177795 1622.73 31.1564 150.688 0 0 435.001 16.0986 5.361 
495 9.568e+20 6.34636e-05 1713.74 -34.2317 -30.0858 0 0 240.241 3.1736 1.9136 
496 1.8988e+21 0.000125946 1572.89 -61.6081 24.3056 0 0 179.599 4.70832 3.7976 
497 2.4069e+21 0.000159647 1737.03 2.39334 86.0994 0 0 238.74 7.93354 4.8138 
498 2.0802e+21 0.000137978 1752.04 -88.6965 5.80535 0 0 334.489 9.6066 4.1604 
499 2.3416e+21 0.000155316 1819.96 -72.2364 86.9632 0 0 175.151 5.66249 4.6832 
500 8.871e+20 5.88405e-05 1796.16 -229.433 152.159 0 0 160.143 1.96139 1.7742 
501 1.3788e+21 9.14544e-05 1840.89 136.626 -34.472 0 0 275.881 5.25178 2.7576 
502 2.0044e+21 0.00013295 1873.44 89.4036 -8.94919 0 0 337.493 9.33969 4.0088 
503 1.8229e+21 0.000120911 1811.61 30.8037 -66.2177 0 0 277.044 6.97261 3.6458 
504 1.8292e+21 0.000121329 1736.74 -106.783 98.5646 0 0 202.939 5.12518 3.6584 
505 1.9125e+21 0.000126854 1814.76 130.937 79.5861 0 0 254.953 6.73202 3.825 
506 1.1793e+21 7.82218e-05 1712.81 50.3755 92.6649 0 0 223.814 3.64414 2.3586 
507 1.5888e+21 0.000105384 1794.36 -106.353 -25.3785 0 0 285.84 6.27012 3.1776 
508 1.2478e+21 8.27653e-05 1708.62 -109.853 90.8322 0 0 308.477 5.31436 2.4956 
509 1.274e+21 8.45031e-05 1790.93 -20.8551 -6.8458 0 0 226.946 3.99186 2.548 
510 2.1088e+21 0.000139875 1792.26 17.35 -56.4203 0 0 187.692 5.46469 4.2176 
511 2.1879e+21 0.000145121 1769.9 75.3829 -65.1735 0 0 389.212 11.757 4.3758 
512 1.6815e+21 0.000111532 1577.98 -94.3832 -72.84 0 0 339.139 7.87332 3.363 
513 2.3331e+21 0.000154752 1248.59 309.02 284.691 0 0 1634.41 52.6476 4.6662 
514 3.4831e+21 0.000231031 1126.29 126.02 83.1757 0 0 1565.12 75.2655 6.9662 
515 1.2138e+21 8.05101e-05 1024.88 -85.231 -587.374 0 0 951.064 15.9382 2.4276 
516 1.0688e+21 7.08924e-05 1225.29 -86.2731 -248.203 0 0 710.025 10.4774 2.1376 
517 1.2266e+21 8.13592e-05 1218.76 -55.174 -10.8784 0 0 582.541 9.86535 2.4532 
518 1.0057e+21 6.67071e-05 998.188 -42.8367 -194.212 0 0 669.568 9.29707 2.0114 
519 2.1056e+21 0.000139662 864.767 83.9873 -71.655 0 0 1360.8 39.5598 4.2112 
520 6.586e+20 4.36843e-05 1497.61 -220.714 289.392 0 0 633.894 5.76397 1.3172 
521 1.4512e+21 9.62566e-05 808.712 176.108 -66.11 0 0 1216.97 24.3831 2.9024 
522 1.9595e+21 0.000129972 1106.43 -0.570305 -15.5769 0 0 779.023 21.0755 3.919 
523 1.0879e+21 7.21593e-05 569.872 18.1466 69.8709 0 0 1517.15 22.7877 2.1758 
524 7.381e+20 4.89574e-05 347.591 72.9804 200.861 0 0 892.84 9.09854 1.4762 
525 1.0376e+21 6.8823e-05 1361.02 -1.12637 126.317 0 0 976.066 13.9827 2.0752 
526 1.621e+21 0.000107519 1520.55 -2.6802 -103.497 0 0 762.033 17.0545 3.242 
527 1.8002e+21 0.000119405 1321.26 -188.999 -97.5467 0 0 1305 32.435 3.6004 
528 2.549e+21 0.000169073 854.97 74.8445 -99.3598 0 0 1108.19 39.0004 5.098 
529 8.347e+20 5.53648e-05 623.457 -151.946 -649.639 0 0 1811.71 20.8787 1.6694 
530 1.0589e+21 7.02358e-05 896.514 121.948 -39.6257 0 0 1501.78 21.9555 2.1178 
531 7.54e+20 5.00121e-05 893.356 38.0931 -116.815 0 0 1274.54 13.2681 1.508 
532 9.024e+20 5.98553e-05 1835.49 -99.6443 -95.2285 0 0 129.318 1.61117 1.8048 
533 2.8175e+21 0.000186882 1054.21 66.2685 140.768 0 0 1064.05 41.3912 5.635 
534 1.4871e+21 9.86379e-05 1159.37 80.545 -209.24 0 0 1194.99 24.5351 2.9742 
535 2.427e+20 1.6098e-05 1178.22 65.8748 -481.038 0 0 -9.80926e-13 -3.28692e-15 0.4854 
536 2.0267e+21 0.000134429 1082.95 223.041 101.023 0 0 625.65 17.5067 4.0534 
537 1.0934e+21 7.25241e-05 1185.96 -111.459 288.172 0 0 1825.83 27.5628 2.1868 
538 1.5702e+21 0.00010415 1152.61 197.339 426.128 0 0 1019.4 22.0996 3.1404 
539 1.6708e+21 0.000110822 772.113 -98.0841 -165.083 0 0 1125.67 25.9669 3.3416 
540 6.945e+20 4.60655e-05 1075 -98.3176 -55.4262 0 0 1708.73 16.3843 1.389 
541 1.1467e+21 7.60595e-05 1413.34 -120.733 -237.692 0 0 460.172 7.2854 2.2934 
542 7e+20 4.64303e-05 1375.89 -90.1846 -298.408 0 0 125.066 1.20871 1.4 
543 7.783e+20 5.16239e-05 1715.21 -115.828 185.192 0 0 163.416 1.756 1.5566 
544 5.025e+20 3.33303e-05 1694.53 -56.3804 -85.2952 0 0 171.007 1.18641 1.005 
545 1.7381e+21 0.000115286 1594.46 70.7294 -81.8575 0 0 264.537 6.34811 3.4762 
546 1.1286e+21 7.48589e-05 1656.34 30.0687 -87.1538 0 0 278.383 4.33776 2.2572 
547 9.753e+20 6.46907e-05 1901.59 14.8511 -45.7152 0 0 372.09 5.01037 1.9506 
548 8.287e+20 5.49668e-05 1680.15 0.171629 95.9354 0 0 435.136 4.97858 1.6574 
549 3.609e+20 2.39381e-05 1612.44 62.9894 55.1861 0 0 403.884 2.01246 0.7218 
550 1.2486e+21 8.28184e-05 1848.27 -117.188 -156.908 0 0 214.025 3.68953 2.4972 
551 2.3623e+21 0.000156689 1683.77 4.50337 105.268 0 0 233.026 7.60017 4.7246 
552 1.2038e+21 7.98469e-05 1857.98 -106.876 -143.022 0 0 163.829 2.72288 2.4076 
553 1.9562e+21 0.000129753 1739.57 -52.1308 -95.0082 0 0 198.821 5.36982 3.9124 
554 1.1425e+21 7.57809e-05 1624.87 20.3408 -89.5845 0 0 234.437 3.69799 2.285 
555 1.6885e+21 0.000111997 1615.66 66.6889 2.23471 0 0 260.412 6.0708 3.377 
556 1.4673e+21 9.73245e-05 1477.57 110.161 -236.306 0 0 286.032 5.79451 2.9346 
557 1.3054e+21 8.65859e-05 1839.93 -130.152 81.4618 0 0 146.437 2.63924 2.6108 
558 1.0868e+21 7.20864e-05 1809.76 2.2723 -107.742 0 0 254.394 3.81716 2.1736 
559 1.1716e+21 7.77111e-05 1892.06 -150.091 65.163 0 0 202.097 3.26905 2.3432 
560 1.7941e+21 0.000119001 1853.89 -87.6835 -96.6346 0 0 288.698 7.15111 3.5882 
561 2.275e+21 0.000150898 1745.47 -17.9279 47.3236 0 0 237.07 7.4463 4.55 
562 1.5083e+21 0.000100044 1762.82 -11.9438 31.7394 0 0 251.484 5.23699 3.0166 
563 1.0584e+21 7.02026e-05 1564.09 355.334 60.5916 0 0 983.396 14.3702 2.1168 