ITEM: TIMESTEP
30000
ITEM: NUMBER OF SURFS
3
ITEM: BOX BOUNDS oo rr pp
0 1.5
0 0.5
-0.5 0.5
ITEM: SURFS id f_2[1] f_2[2] f_2[3] f_2[4] f_2[5] f_2[6] f_2[7] f_2[8] 
1 0.0192 0.0192 0 38.529 3.16179 2.62848 385.29 186645 
2 0.0052 0.0052 0 6.85922 -10.1435 -0.103751 12.6794 8562.34 
3 0 0 0 0 0 0 0 0 
