ITEM: TIMESTEP
15000
ITEM: NUMBER OF SURFS
3
ITEM: BOX BOUNDS oo rr pp
0 1.5
0 0.5
-0.5 0.5
ITEM: SURFS id f_2[1] f_2[2] f_2[3] f_2[4] f_2[5] f_2[6] f_2[7] f_2[8] 
1 0.0196 0.0196 0 38.2992 3.52095 -1.65032 382.992 177268 
2 0.0064 0.0064 0 9.70797 -11.5372 1.69814 14.4215 10412.1 
3 0 0 0 0 0 0 0 0 
