ITEM: TIMESTEP
5000
ITEM: NUMBER OF CELLS
2500
ITEM: BOX BOUNDS oo rr pp
0 1.5
0 0.5
-0.5 0.5
ITEM: CELLS id f_1[1] f_1[2] f_1[3] f_1[4] f_1[5] f_1[6] f_1[7] f_5[1] f_5[2] f_1[8] 
1 8.338e+20 5.53051e-05 1807.54 -51.565 135.329 0 0 73.4251 0.845259 1.6676 
2 1.5298e+21 0.00010147 1687.28 -119.405 61.5667 0 0 195.047 4.11962 3.0596 
3 1.7013e+21 0.000112846 1731.36 -139.223 141.614 0 0 202.752 4.76245 3.4026 
4 1.9778e+21 0.000131185 1521.77 103.743 -60.8373 0 0 470.699 12.8531 3.9556 
5 1.1439e+21 7.58737e-05 1802.51 -108.998 -64.9174 0 0 339.455 5.36109 2.2878 
6 2.0276e+21 0.000134489 1787.48 -15.6035 -39.6513 0 0 264.119 7.39375 4.0552 
7 1.4607e+21 9.68868e-05 1899.39 8.30962 95.2342 0 0 226.882 4.57556 2.9214 
8 1.2573e+21 8.33955e-05 1942.41 65.423 209.013 0 0 208.813 3.62477 2.5146 
9 1.4449e+21 9.58388e-05 1943.74 7.88753 98.1497 0 0 81.0614 1.61709 2.8898 
10 1.7603e+21 0.000116759 1839.55 -44.4874 67.09 0 0 163.664 3.97761 3.5206 
11 1.0889e+21 7.22256e-05 1718.57 151.804 -49.3621 0 0 274.78 4.131 2.1778 
12 1.1593e+21 7.68952e-05 1787.36 112.217 72.6816 0 0 263.383 4.21567 2.3186 
13 1.3262e+21 8.79655e-05 1514.59 96.2816 197.433 0 0 912.91 16.7155 2.6524 
14 3.6204e+21 0.000240138 210.177 -134.186 83.4317 0 0 2247.11 112.322 2.4136 
15 0 0 0 0 0 0 0 0 0 0 
16 0 0 0 0 0 0 0 0 0 0 
17 0 0 0 0 0 0 0 0 0 0 
18 0 0 0 0 0 0 0 0 0 0 
19 0 0 0 0 0 0 0 0 0 0 
20 0 0 0 0 0 0 0 0 0 0 
21 0 0 0 0 0 0 0 0 0 0 
22 0 0 0 0 0 0 0 0 0 0 
23 0 0 0 0 0 0 0 0 0 0 
24 0 0 0 0 0 0 0 0 0 0 
25 0 0 0 0 0 0 0 0 0 0 
26 0 0 0 0 0 0 0 0 0 0 
27 0 0 0 0 0 0 0 0 0 0 
28 0 0 0 0 0 0 0 0 0 0 
29 0 0 0 0 0 0 0 0 0 0 
30 0 0 0 0 0 0 0 0 0 0 
31 0 0 0 0 0 0 0 0 0 0 
32 0 0 0 0 0 0 0 0 0 0 
33 0 0 0 0 0 0 0 0 0 0 
34 0 0 0 0 0 0 0 0 0 0 
35 0 0 0 0 0 0 0 0 0 0 
36 0 0 0 0 0 0 0 0 0 0 
37 0 0 0 0 0 0 0 0 0 0 
38 0 0 0 0 0 0 0 0 0 0 
39 0 0 0 0 0 0 0 0 0 0 
40 0 0 0 0 0 0 0 0 0 0 
41 4.812e+20 3.19175e-05 1707.79 -176.022 -12.9404 0 0 381.55 2.53489 0.9624 
42 2.0327e+21 0.000134827 1573.58 -10.9532 25.9517 0 0 290.171 8.14349 4.0654 
43 1.7176e+21 0.000113927 1756.61 60.6516 44.7836 0 0 261.991 6.21286 3.4352 
44 1.05e+21 6.96454e-05 1826.35 68.5631 163.069 0 0 113.309 1.64261 2.1 
45 1.6739e+21 0.000111028 1640.52 21.7195 -38.6641 0 0 139.103 3.21477 3.3478 
46 1.4854e+21 9.85251e-05 1686.99 82.2949 -51.4822 0 0 129.792 2.66179 2.9708 
47 1.8118e+21 0.000120175 1855.16 72.7305 -36.679 0 0 254.576 6.36812 3.6236 
48 1.1981e+21 7.94688e-05 1785.7 30.5305 -45.7258 0 0 224.526 3.714 2.3962 
49 1.3757e+21 9.12488e-05 1822.34 -15.7835 -52.6119 0 0 349.786 6.64369 2.7514 
50 1.2827e+21 8.50802e-05 1729.13 238.153 7.70141 0 0 185.427 3.28384 2.5654 
51 8.856e+20 5.8741e-05 1806.82 -64.622 -78.0932 0 0 274.694 3.35869 1.7712 
52 1.5154e+21 0.000100515 1617.47 -83.5458 27.3829 0 0 367.5 7.68897 3.0308 
53 1.2725e+21 8.44037e-05 1653.02 -83.3519 -72.4643 0 0 420.318 7.38446 2.545 
54 1.4467e+21 9.59582e-05 1844.07 -50.7704 31.3443 0 0 453.962 9.06737 2.8934 
55 1.6415e+21 0.000108879 1835.76 -3.02954 -70.5865 0 0 224.046 5.07764 3.283 
56 1.3202e+21 8.75675e-05 1844.21 -24.5924 -67.9205 0 0 198.685 3.62149 2.6404 
57 1.885e+21 0.00012503 1596.38 21.0435 99.3528 0 0 194.67 5.06634 3.77 
58 1.9862e+21 0.000131743 1683.13 -83.5692 7.89664 0 0 315.25 8.64493 3.9724 
59 1.7011e+21 0.000112832 1675.91 32.5366 -135.861 0 0 287.777 6.75879 3.4022 
60 1.6975e+21 0.000112593 1637.86 -41.2274 -125.65 0 0 215.039 5.03977 3.395 
61 2.2139e+21 0.000146846 1581.68 14.3144 -53.152 0 0 248.865 7.60686 4.4278 
62 1.557e+21 0.000103274 1535.45 -2.70244 -141.156 0 0 119.352 2.56567 3.114 
63 1.4482e+21 9.60577e-05 1714.32 1.0456 130.822 0 0 633.046 12.6575 2.8964 
64 4.4145e+21 0.000292809 347.971 -23.2221 215.626 0 0 1507.86 91.9022 2.943 
65 0 0 0 0 0 0 0 0 0 0 
66 0 0 0 0 0 0 0 0 0 0 
67 0 0 0 0 0 0 0 0 0 0 
68 0 0 0 0 0 0 0 0 0 0 
69 0 0 0 0 0 0 0 0 0 0 
70 0 0 0 0 0 0 0 0 0 0 
71 0 0 0 0 0 0 0 0 0 0 
72 0 0 0 0 0 0 0 0 0 0 
73 0 0 0 0 0 0 0 0 0 0 
74 0 0 0 0 0 0 0 0 0 0 
75 0 0 0 0 0 0 0 0 0 0 
76 0 0 0 0 0 0 0 0 0 0 
77 0 0 0 0 0 0 0 0 0 0 
78 0 0 0 0 0 0 0 0 0 0 
79 0 0 0 0 0 0 0 0 0 0 
80 0 0 0 0 0 0 0 0 0 0 
81 0 0 0 0 0 0 0 0 0 0 
82 0 0 0 0 0 0 0 0 0 0 
83 0 0 0 0 0 0 0 0 0 0 
84 0 0 0 0 0 0 0 0 0 0 
85 0 0 0 0 0 0 0 0 0 0 
86 0 0 0 0 0 0 0 0 0 0 
87 0 0 0 0 0 0 0 0 0 0 
88 0 0 0 0 0 0 0 0 0 0 
89 0 0 0 0 0 0 0 0 0 0 
90 0 0 0 0 0 0 0 0 0 0 
91 4.909e+20 3.25609e-05 1670.94 5.33436 -193.568 0 0 211.324 1.43227 0.9818 
92 8.049e+20 5.33882e-05 1654.71 -51.2599 -148.418 0 0 238.356 2.64882 1.6098 
93 1.1887e+21 7.88453e-05 1891.73 -116.097 -53.7167 0 0 61.5556 1.01024 2.3774 
94 1.7131e+21 0.000113628 1968.44 -60.4675 -53.6397 0 0 120.316 2.84571 3.4262 
95 1.4904e+21 9.88567e-05 1826.34 -11.6258 -39.5944 0 0 128.173 2.63743 2.9808 
96 1.3671e+21 9.06784e-05 1694.04 154.879 -78.5626 0 0 238.702 4.50547 2.7342 
97 1.8167e+21 0.0001205 1688.26 -97.3128 8.0487 0 0 192.144 4.8194 3.6334 
98 2.3516e+21 0.000155979 1656.82 -31.365 -67.5617 0 0 406.501 13.198 4.7032 
99 1.1952e+21 7.92764e-05 1711.44 -166.273 26.3584 0 0 426.408 7.03638 2.3904 
100 1.585e+21 0.000105131 1645.03 -23.596 -5.02077 0 0 206.875 4.5271 3.17 
101 1.7602e+21 0.000116752 1693.68 -80.6783 47.8685 0 0 545.723 13.2623 3.5204 
102 1.2822e+21 8.5047e-05 1765.54 -185.763 26.6217 0 0 229.621 4.06492 2.5644 
103 1.4889e+21 9.87572e-05 1875.93 -37.2704 27.8403 0 0 358.343 7.36627 2.9778 
104 1.525e+21 0.000101152 1846.53 137.97 18.9567 0 0 264.614 5.57143 3.05 
105 1.6655e+21 0.000110471 1710.36 -123.678 92.433 0 0 230.081 5.29065 3.331 
106 1.0265e+21 6.80867e-05 1724.3 -104.136 -85.4456 0 0 208.408 2.95363 2.053 
107 2.0134e+21 0.000133547 1668.1 -125.276 -23.0562 0 0 317.419 8.82361 4.0268 
108 1.3347e+21 8.85293e-05 1603.21 -81.4517 37.5515 0 0 278.778 5.13718 2.6694 
109 1.0634e+21 7.05343e-05 1696.68 -131.13 -105.967 0 0 229.549 3.3702 2.1268 
110 1.4116e+21 9.363e-05 1589.03 80.7406 -59.0375 0 0 289.719 5.64639 2.8232 
111 1.6593e+21 0.00011006 1745.12 4.22262 -8.30266 0 0 177.706 4.07108 3.3186 
112 1.1173e+21 7.41094e-05 1568.69 -9.05063 -50.2586 0 0 189.331 2.92062 2.2346 
113 1.6116e+21 0.000106896 1411.63 90.2276 -46.13 0 0 1187.11 26.4139 3.2232 
114 5.3838e+21 0.000357102 238.287 128.668 -29.3504 0 0 1606.8 119.435 3.5892 
115 0 0 0 0 0 0 0 0 0 0 
116 0 0 0 0 0 0 0 0 0 0 
117 0 0 0 0 0 0 0 0 0 0 
118 0 0 0 0 0 0 0 0 0 0 
119 0 0 0 0 0 0 0 0 0 0 
120 0 0 0 0 0 0 0 0 0 0 
121 0 0 0 0 0 0 0 0 0 0 
122 0 0 0 0 0 0 0 0 0 0 
123 0 0 0 0 0 0 0 0 0 0 
124 0 0 0 0 0 0 0 0 0 0 
125 0 0 0 0 0 0 0 0 0 0 
126 0 0 0 0 0 0 0 0 0 0 
127 0 0 0 0 0 0 0 0 0 0 
128 0 0 0 0 0 0 0 0 0 0 
129 0 0 0 0 0 0 0 0 0 0 
130 0 0 0 0 0 0 0 0 0 0 
131 0 0 0 0 0 0 0 0 0 0 
132 0 0 0 0 0 0 0 0 0 0 
133 0 0 0 0 0 0 0 0 0 0 
134 0 0 0 0 0 0 0 0 0 0 
135 0 0 0 0 0 0 0 0 0 0 
136 0 0 0 0 0 0 0 0 0 0 
137 0 0 0 0 0 0 0 0 0 0 
138 0 0 0 0 0 0 0 0 0 0 
139 0 0 0 0 0 0 0 0 0 0 
140 0 0 0 0 0 0 0 0 0 0 
141 8.331e+20 5.52587e-05 1478.67 -120.042 -116.443 0 0 319.505 3.675 1.6662 
142 2.3113e+21 0.000153306 1850.22 -46.0576 -171.076 0 0 312.765 9.98064 4.6226 
143 1.587e+21 0.000105264 1470.29 -62.3179 -54.8331 0 0 237.148 5.19612 3.174 
144 1.1768e+21 7.8056e-05 1678.34 -118.408 170.363 0 0 198.115 3.21886 2.3536 
145 1.4052e+21 9.32055e-05 1771.56 95.0139 98.116 0 0 157.169 3.04922 2.8104 
146 1.7948e+21 0.000119047 1685.85 67.1083 68.0677 0 0 146.642 3.63376 3.5896 
147 1.4155e+21 9.38887e-05 1527.03 -81.9024 -14.8836 0 0 233.641 4.56607 2.831 
148 1.3431e+21 8.90865e-05 1715.09 14.5471 -70.672 0 0 218.885 4.0589 2.6862 
149 1.0169e+21 6.745e-05 1798.65 70.0609 -100.072 0 0 267.068 3.74959 2.0338 
150 1.3772e+21 9.13483e-05 1849.79 -85.2018 -218.354 0 0 331.087 6.29539 2.7544 
151 8.963e+20 5.94507e-05 1838.64 23.4355 268.102 0 0 558.765 6.91459 1.7926 
152 1.1872e+21 7.87458e-05 1694.06 20.1361 -56.8113 0 0 338.368 5.54622 2.3744 
153 1.458e+21 9.67077e-05 1887.27 -74.8194 -1.2413 0 0 133.353 2.68437 2.916 
154 1.2369e+21 8.20423e-05 1769.39 42.647 -44.4372 0 0 217.09 3.7073 2.4738 
155 1.424e+21 9.44525e-05 1665.51 -53.4259 -150.714 0 0 355.923 6.99761 2.848 
156 1.4275e+21 9.46846e-05 1740.02 -170.935 80.7525 0 0 269.605 5.31359 2.855 
157 1.1911e+21 7.90045e-05 1628.7 72.4302 193.307 0 0 388.799 6.39377 2.3822 
158 1.5856e+21 0.000105171 1801.79 -31.2357 -86.907 0 0 221.789 4.8553 3.1712 
159 2.0036e+21 0.000132897 1683.51 -147.17 185.758 0 0 290.106 8.0251 4.0072 
160 1.4136e+21 9.37627e-05 1625.25 72.0414 65.4035 0 0 196.52 3.83545 2.8272 
161 1.7137e+21 0.000113668 1555.99 56.5649 -73.5824 0 0 216.325 5.11829 3.4274 
162 1.6258e+21 0.000107838 1567.44 59.0261 94.1552 0 0 203.736 4.57318 3.2516 
163 1.8307e+21 0.000121429 1356.2 200.458 -80.345 0 0 1317.6 33.3031 3.6614 
164 6.6894e+21 0.000443701 251.757 -185.57 2.2513 0 0 1515.5 139.967 4.4596 
165 0 0 0 0 0 0 0 0 0 0 
166 0 0 0 0 0 0 0 0 0 0 
167 0 0 0 0 0 0 0 0 0 0 
168 0 0 0 0 0 0 0 0 0 0 
169 0 0 0 0 0 0 0 0 0 0 
170 0 0 0 0 0 0 0 0 0 0 
171 0 0 0 0 0 0 0 0 0 0 
172 0 0 0 0 0 0 0 0 0 0 
173 0 0 0 0 0 0 0 0 0 0 
174 0 0 0 0 0 0 0 0 0 0 
175 0 0 0 0 0 0 0 0 0 0 
176 0 0 0 0 0 0 0 0 0 0 
177 0 0 0 0 0 0 0 0 0 0 
178 0 0 0 0 0 0 0 0 0 0 
179 0 0 0 0 0 0 0 0 0 0 
180 0 0 0 0 0 0 0 0 0 0 
181 0 0 0 0 0 0 0 0 0 0 
182 0 0 0 0 0 0 0 0 0 0 
183 0 0 0 0 0 0 0 0 0 0 
184 0 0 0 0 0 0 0 0 0 0 
185 0 0 0 0 0 0 0 0 0 0 
186 0 0 0 0 0 0 0 0 0 0 
187 0 0 0 0 0 0 0 0 0 0 
188 0 0 0 0 0 0 0 0 0 0 
189 0 0 0 0 0 0 0 0 0 0 
190 0 0 0 0 0 0 0 0 0 0 
191 2.743e+20 1.8194e-05 1673.28 -384.869 91.892 0 0 77.9781 0.295312 0.5486 
192 1.2442e+21 8.25265e-05 1653.42 -147.613 -96.508 0 0 188.74 3.24219 2.4884 
193 1.6054e+21 0.000106485 1705.54 45.197 61.9109 0 0 261.748 5.80163 3.2108 
194 8.212e+20 5.44694e-05 1780.91 -89.2116 13.4872 0 0 217.568 2.46676 1.6424 
195 8.532e+20 5.65919e-05 1591.28 148.038 157.438 0 0 99.3269 1.17004 1.7064 
196 1.3992e+21 9.28075e-05 1630.43 83.6823 142.762 0 0 198.752 3.83951 2.7984 
197 1.1969e+21 7.93892e-05 1661.46 114.026 105.959 0 0 210.524 3.47891 2.3938 
198 1.8083e+21 0.000119943 1636.34 -257.35 59.5489 0 0 223.996 5.59235 3.6166 
199 2.0864e+21 0.000138389 1677.97 82.383 55.5692 0 0 199.998 5.76112 4.1728 
200 1.4596e+21 9.68138e-05 1777.58 33.0844 100.072 0 0 199.23 4.01487 2.9192 
201 1.501e+21 9.95598e-05 1790.38 -34.5862 140.669 0 0 340.512 7.05661 3.002 
202 1.7891e+21 0.000118669 1700.42 -21.1437 -117.942 0 0 188.23 4.6495 3.5782 
203 1.2357e+21 8.19627e-05 1715.11 -54.3906 31.7905 0 0 167.776 2.86238 2.4714 
204 1.3893e+21 9.21509e-05 1680.07 9.8724 -97.1515 0 0 101.893 1.95444 2.7786 
205 1.5017e+21 9.96063e-05 1869.11 -78.6086 130.943 0 0 118.664 2.46028 3.0034 
206 1.4225e+21 9.4353e-05 1885.59 167.348 41.4515 0 0 219.88 4.31839 2.845 
207 2.083e+21 0.000138163 1723.71 86.1185 -97.5568 0 0 487.173 14.0106 4.166 
208 1.7309e+21 0.000114809 1737.27 -22.8993 -158.054 0 0 235.796 5.63498 3.4618 
209 1.654e+21 0.000109708 1539.82 44.1915 119.653 0 0 277.872 6.34547 3.308 
210 9.11e+20 6.04257e-05 1767.38 148.007 -174.365 0 0 87.5534 1.10122 1.822 
211 1.824e+21 0.000120984 1589.88 -56.88 -28.221 0 0 237.999 5.99353 3.648 
212 1.8574e+21 0.000123199 1821.23 -10.7064 -178.249 0 0 176.563 4.5278 3.7148 
213 1.1489e+21 7.62054e-05 1654.99 -143.347 -152.562 0 0 810.041 12.8491 2.2978 
214 4.698e+21 0.000311614 213.613 63.2004 -59.5564 0 0 1413.14 91.6604 3.132 
215 0 0 0 0 0 0 0 0 0 0 
216 0 0 0 0 0 0 0 0 0 0 
217 0 0 0 0 0 0 0 0 0 0 
218 0 0 0 0 0 0 0 0 0 0 
219 0 0 0 0 0 0 0 0 0 0 
220 0 0 0 0 0 0 0 0 0 0 
221 0 0 0 0 0 0 0 0 0 0 
222 0 0 0 0 0 0 0 0 0 0 
223 0 0 0 0 0 0 0 0 0 0 
224 0 0 0 0 0 0 0 0 0 0 
225 0 0 0 0 0 0 0 0 0 0 
226 0 0 0 0 0 0 0 0 0 0 
227 0 0 0 0 0 0 0 0 0 0 
228 0 0 0 0 0 0 0 0 0 0 
229 0 0 0 0 0 0 0 0 0 0 
230 0 0 0 0 0 0 0 0 0 0 
231 0 0 0 0 0 0 0 0 0 0 
232 0 0 0 0 0 0 0 0 0 0 
233 0 0 0 0 0 0 0 0 0 0 
234 0 0 0 0 0 0 0 0 0 0 
235 0 0 0 0 0 0 0 0 0 0 
236 0 0 0 0 0 0 0 0 0 0 
237 0 0 0 0 0 0 0 0 0 0 
238 0 0 0 0 0 0 0 0 0 0 
239 0 0 0 0 0 0 0 0 0 0 
240 0 0 0 0 0 0 0 0 0 0 
241 3.041e+20 2.01706e-05 1958.2 100.266 -178.183 0 0 102.025 0.428357 0.6082 
242 1.0466e+21 6.94199e-05 1851.34 -21.6814 138.623 0 0 189.27 2.73492 2.0932 
243 1.5377e+21 0.000101994 1818.3 81.4819 78.3728 0 0 156.033 3.31261 3.0754 
244 1.7896e+21 0.000118702 1692.11 191.684 -193.02 0 0 180.165 4.45153 3.5792 
245 1.4358e+21 9.52352e-05 1590.17 114.933 25.7864 0 0 86.8224 1.72111 2.8716 
246 1.5694e+21 0.000104097 1589.87 99.162 58.8862 0 0 125.167 2.71211 3.1388 
247 1.1593e+21 7.68952e-05 1652.85 123.307 15.7016 0 0 113.3 1.81346 2.3186 
248 1.0726e+21 7.11445e-05 1642.89 65.9207 -88.7263 0 0 289.654 4.28943 2.1452 
249 1.5267e+21 0.000101264 1912.71 81.2779 -38.4939 0 0 274.087 5.7773 3.0534 
250 1.6303e+21 0.000108136 1800.47 -36.6992 -117.895 0 0 251.592 5.66302 3.2606 
251 1.615e+21 0.000107121 1869.88 47.0057 0.797445 0 0 171.488 3.82375 3.23 
252 1.5374e+21 0.000101974 1783.77 53.6241 83.8689 0 0 192.572 4.08754 3.0748 
253 8.353e+20 5.54046e-05 1652.09 80.015 -175.06 0 0 156.248 1.80194 1.6706 
254 1.2027e+21 7.97739e-05 1680.2 85.0355 33.7995 0 0 220.085 3.65453 2.4054 
255 9.898e+20 6.56524e-05 1864.8 -69.8534 88.314 0 0 314.06 4.29183 1.9796 
256 1.0829e+21 7.18277e-05 1756.35 -146.582 -54.7082 0 0 307.661 4.59985 2.1658 
257 9.166e+20 6.07972e-05 2018.12 126.241 190.26 0 0 377.058 4.77168 1.8332 
258 1.5202e+21 0.000100833 1881.38 -91.0956 61.2177 0 0 568.779 11.9379 3.0404 
259 8.924e+20 5.9192e-05 1595.72 146.379 178.281 0 0 252.494 3.11095 1.7848 
260 1.3936e+21 9.24361e-05 1646.56 -7.13907 -185.922 0 0 297.853 5.7309 2.7872 
261 1.4757e+21 9.78817e-05 1789.6 -217.514 -18.2075 0 0 151.008 3.07668 2.9514 
262 1.6587e+21 0.00011002 1545.62 -118.535 -111.065 0 0 276.084 6.32255 3.3174 
263 1.7317e+21 0.000114862 1548.26 64.8805 98.5359 0 0 810.126 19.3691 3.4634 
264 3.6276e+21 0.000240615 573.763 -44.414 -140.63 0 0 1900.03 95.1621 2.4184 
265 0 0 0 0 0 0 0 0 0 0 
266 0 0 0 0 0 0 0 0 0 0 
267 0 0 0 0 0 0 0 0 0 0 
268 0 0 0 0 0 0 0 0 0 0 
269 0 0 0 0 0 0 0 0 0 0 
270 0 0 0 0 0 0 0 0 0 0 
271 0 0 0 0 0 0 0 0 0 0 
272 0 0 0 0 0 0 0 0 0 0 
273 0 0 0 0 0 0 0 0 0 0 
274 0 0 0 0 0 0 0 0 0 0 
275 0 0 0 0 0 0 0 0 0 0 
276 0 0 0 0 0 0 0 0 0 0 
277 0 0 0 0 0 0 0 0 0 0 
278 0 0 0 0 0 0 0 0 0 0 
279 0 0 0 0 0 0 0 0 0 0 
280 0 0 0 0 0 0 0 0 0 0 
281 0 0 0 0 0 0 0 0 0 0 
282 0 0 0 0 0 0 0 0 0 0 
283 0 0 0 0 0 0 0 0 0 0 
284 0 0 0 0 0 0 0 0 0 0 
285 0 0 0 0 0 0 0 0 0 0 
286 0 0 0 0 0 0 0 0 0 0 
287 0 0 0 0 0 0 0 0 0 0 
288 0 0 0 0 0 0 0 0 0 0 
289 0 0 0 0 0 0 0 0 0 0 
290 0 0 0 0 0 0 0 0 0 0 
291 5.884e+20 3.9028e-05 1741.73 136.347 330.942 0 0 73.654 0.598346 1.1768 
292 1.1436e+21 7.58538e-05 1717.45 -31.304 153.134 0 0 217.985 3.44178 2.2872 
293 1.1749e+21 7.79299e-05 1791.89 81.696 87.3983 0 0 97.992 1.58955 2.3498 
294 1.3259e+21 8.79456e-05 1751.71 -29.5103 -149.28 0 0 262.361 4.80279 2.6518 
295 1.7968e+21 0.00011918 1679.61 72.9302 -4.87249 0 0 234.542 5.81839 3.5936 
296 1.902e+21 0.000126158 1707.04 70.6264 205.446 0 0 131.104 3.44278 3.804 
297 1.1706e+21 7.76447e-05 1837.44 58.8984 155.46 0 0 188.826 3.05178 2.3412 
298 1.5591e+21 0.000103414 1831.12 -190.019 147.147 0 0 377.137 8.11814 3.1182 
299 1.5723e+21 0.000104289 1858.37 56.8116 73.4518 0 0 292.924 6.35878 3.1446 
300 1.9462e+21 0.000129089 1684.71 3.31746 129.467 0 0 340.135 9.13949 3.8924 
301 1.315e+21 8.72226e-05 1752.79 -5.24413 98.14 0 0 72.7628 1.32105 2.63 
302 2.3225e+21 0.000154049 1763.51 150.441 -69.8983 0 0 421.117 13.5034 4.645 
303 1.7643e+21 0.000117024 1887.37 50.7984 -31.0232 0 0 315.87 7.6942 3.5286 
304 1.4895e+21 9.8797e-05 1707.18 -9.59357 -175.942 0 0 195.347 4.01726 2.979 
305 2.4491e+21 0.000162446 1644.47 -175.663 -120.846 0 0 268.321 9.07287 4.8982 
306 1.9887e+21 0.000131908 1792.97 -19.4744 -59.7437 0 0 220.315 6.04917 3.9774 
307 1.9413e+21 0.000128764 1734.06 99.04 4.69892 0 0 373.875 10.0208 3.8826 
308 1.5725e+21 0.000104302 1982.47 94.6378 -60.1597 0 0 111.339 2.41724 3.145 
309 2.2492e+21 0.000149187 1790.59 13.7538 -33.0601 0 0 341.274 10.5978 4.4984 
310 1.6981e+21 0.000112633 1737.57 -49.8564 -19.5402 0 0 310.36 7.27634 3.3962 
311 1.0547e+21 6.99572e-05 1862.67 -82.0739 130.314 0 0 246.072 3.58322 2.1094 
312 9.072e+20 6.01737e-05 1785.2 -64.4179 222.009 0 0 366.132 4.58589 1.8144 
313 1.7089e+21 0.00011335 1659.27 140.777 -130.356 0 0 566.367 13.3628 3.4178 
314 4.4526e+21 0.000295337 268.326 86.8643 -73.4499 0 0 1912.53 117.572 2.9684 
315 0 0 0 0 0 0 0 0 0 0 
316 0 0 0 0 0 0 0 0 0 0 
317 0 0 0 0 0 0 0 0 0 0 
318 0 0 0 0 0 0 0 0 0 0 
319 0 0 0 0 0 0 0 0 0 0 
320 0 0 0 0 0 0 0 0 0 0 
321 0 0 0 0 0 0 0 0 0 0 
322 0 0 0 0 0 0 0 0 0 0 
323 0 0 0 0 0 0 0 0 0 0 
324 0 0 0 0 0 0 0 0 0 0 
325 0 0 0 0 0 0 0 0 0 0 
326 0 0 0 0 0 0 0 0 0 0 
327 0 0 0 0 0 0 0 0 0 0 
328 0 0 0 0 0 0 0 0 0 0 
329 0 0 0 0 0 0 0 0 0 0 
330 0 0 0 0 0 0 0 0 0 0 
331 0 0 0 0 0 0 0 0 0 0 
332 0 0 0 0 0 0 0 0 0 0 
333 0 0 0 0 0 0 0 0 0 0 
334 0 0 0 0 0 0 0 0 0 0 
335 0 0 0 0 0 0 0 0 0 0 
336 0 0 0 0 0 0 0 0 0 0 
337 0 0 0 0 0 0 0 0 0 0 
338 0 0 0 0 0 0 0 0 0 0 
339 0 0 0 0 0 0 0 0 0 0 
340 0 0 0 0 0 0 0 0 0 0 
341 7.449e+20 4.94085e-05 1760.41 201.947 170.706 0 0 140.538 1.44536 1.4898 
342 1.7377e+21 0.00011526 1714 97.0692 65.449 0 0 87.7842 2.10608 3.4754 
343 1.7042e+21 0.000113038 1723.99 114.917 15.7749 0 0 146.318 3.44273 3.4084 
344 1.7096e+21 0.000113396 1858.24 -60.993 -79.0828 0 0 168.743 3.98293 3.4192 
345 1.9122e+21 0.000126834 1678.72 126.892 40.9286 0 0 264.126 6.97312 3.8244 
346 1.2547e+21 8.3223e-05 1874.12 15.5182 -89.0894 0 0 184.435 3.19497 2.5094 
347 1.8564e+21 0.000123133 1539.59 66.5746 18.3553 0 0 259.558 6.65257 3.7128 
348 1.1052e+21 7.33068e-05 1702.83 -42.17 242.317 0 0 274.472 4.18815 2.2104 
349 1.2167e+21 8.07025e-05 1604.69 -95.7847 79.8593 0 0 216.855 3.64281 2.4334 
350 1.9793e+21 0.000131285 1635.7 -148.41 41.9584 0 0 196.239 5.36267 3.9586 
351 1.041e+21 6.90485e-05 1667.22 -89.7077 33.2342 0 0 452.026 6.49677 2.082 
352 6.8e+20 4.51037e-05 1993.46 -66.34 179.279 0 0 234.891 2.20526 1.36 
353 1.0293e+21 6.82724e-05 1653.93 -91.5263 0.143378 0 0 224.193 3.18601 2.0586 
354 1.8914e+21 0.000125455 1736.4 -240.904 -212.644 0 0 184.366 4.81447 3.7828 
355 5.411e+20 3.58906e-05 1711.27 -234.034 -197.844 0 0 150.497 1.12432 1.0822 
356 1.1292e+21 7.48987e-05 1833.9 -379.051 -12.1398 0 0 94.6314 1.47533 2.2584 
357 2.2573e+21 0.000149724 1892.48 -93.8209 9.71032 0 0 179.547 5.59566 4.5146 
358 1.6836e+21 0.000111672 1902.13 -176.353 -8.19178 0 0 208.713 4.85145 3.3672 
359 1.411e+21 9.35902e-05 1916.6 -12.3508 -58.5213 0 0 442.652 8.62328 2.822 
360 1.1131e+21 7.38308e-05 1516.02 125.406 -87.5592 0 0 361.815 5.56038 2.2262 
361 1.135e+21 7.52834e-05 1763 31.3202 -172.923 0 0 209.458 3.28228 2.27 
362 1.8686e+21 0.000123942 1563.99 91.4525 50.3668 0 0 198.093 5.11055 3.7372 
363 1.9215e+21 0.000127451 1718.94 -86.7317 -31.4653 0 0 359.781 9.5447 3.843 
364 4.8747e+21 0.000323334 362.035 -126.951 -163.699 0 0 1810.66 121.862 3.2498 
365 0 0 0 0 0 0 0 0 0 0 
366 0 0 0 0 0 0 0 0 0 0 
367 0 0 0 0 0 0 0 0 0 0 
368 0 0 0 0 0 0 0 0 0 0 
369 0 0 0 0 0 0 0 0 0 0 
370 0 0 0 0 0 0 0 0 0 0 
371 0 0 0 0 0 0 0 0 0 0 
372 0 0 0 0 0 0 0 0 0 0 
373 0 0 0 0 0 0 0 0 0 0 
374 0 0 0 0 0 0 0 0 0 0 
375 0 0 0 0 0 0 0 0 0 0 
376 0 0 0 0 0 0 0 0 0 0 
377 0 0 0 0 0 0 0 0 0 0 
378 0 0 0 0 0 0 0 0 0 0 
379 0 0 0 0 0 0 0 0 0 0 
380 0 0 0 0 0 0 0 0 0 0 
381 0 0 0 0 0 0 0 0 0 0 
382 0 0 0 0 0 0 0 0 0 0 
383 0 0 0 0 0 0 0 0 0 0 
384 0 0 0 0 0 0 0 0 0 0 
385 0 0 0 0 0 0 0 0 0 0 
386 0 0 0 0 0 0 0 0 0 0 
387 0 0 0 0 0 0 0 0 0 0 
388 0 0 0 0 0 0 0 0 0 0 
389 0 0 0 0 0 0 0 0 0 0 
390 0 0 0 0 0 0 0 0 0 0 
391 2.498e+20 1.6569e-05 1660.36 51.522 175.284 0 0 197.838 0.682316 0.4996 
392 1.4416e+21 9.56199e-05 1703.36 41.6175 125.953 0 0 150.738 3.0002 2.8832 
393 1.314e+21 8.71563e-05 1637.36 -50.0883 48.0351 0 0 135.705 2.46192 2.628 
394 2.0946e+21 0.000138933 1768.96 -18.8323 -29.7433 0 0 219.706 6.35369 4.1892 
395 1.5027e+21 9.96726e-05 1761.52 68.1197 -26.803 0 0 161.234 3.34512 3.0054 
396 1.3223e+21 8.77068e-05 1703.15 92.1697 -0.267071 0 0 123.267 2.2504 2.6446 
397 1.5437e+21 0.000102392 1750.46 25.0201 -85.5741 0 0 277.424 5.91275 3.0874 
398 1.3604e+21 9.0234e-05 1657.14 -30.1835 112.314 0 0 160.341 3.01158 2.7208 
399 2.2463e+21 0.000148995 1812.96 -93.2461 21.3638 0 0 228.402 7.08354 4.4926 
400 1.778e+21 0.000117933 1695.98 -86.1395 153.206 0 0 301.79 7.40832 3.556 
401 8.925e+20 5.91986e-05 1877.11 87.1847 -28.4331 0 0 304.465 3.7517 1.785 
402 2.132e+21 0.000141413 1729.82 147.005 -13.5416 0 0 267.007 7.85948 4.264 
403 2.136e+21 0.000141679 1659.86 34.0796 -40.3054 0 0 326.232 9.62081 4.272 
404 9.222e+20 6.11686e-05 1901.8 -90.2219 75.8858 0 0 367.758 4.68242 1.8444 
405 8.21e+20 5.44561e-05 1789.87 -52.9739 -88.2303 0 0 191.122 2.16639 1.642 
406 2.0893e+21 0.000138581 1672.65 -62.2303 -50.3973 0 0 166.34 4.79823 4.1786 
407 1.452e+21 9.63097e-05 1788.83 -179.059 -100.2 0 0 176.253 3.53335 2.904 
408 1.2294e+21 8.15449e-05 1846.41 -57.0796 -294.254 0 0 230.868 3.91869 2.4588 
409 1.4341e+21 9.51224e-05 1869.56 93.9852 -73.8877 0 0 325.421 6.44331 2.8682 
410 1.9833e+21 0.00013155 1773.83 -11.5723 46.7346 0 0 474.23 12.9855 3.9666 
411 1.945e+21 0.00012901 1664.65 -52.1955 240.111 0 0 224.646 6.03257 3.89 
412 9.287e+20 6.15997e-05 1722.31 -221.827 73.0034 0 0 287.168 3.68209 1.8574 
413 1.8994e+21 0.000125985 1547.47 0.440412 100.996 0 0 732.039 19.197 3.7988 
414 3.4509e+21 0.000228895 160.039 36.2677 -154.346 0 0 1563.52 74.4934 2.3006 
415 0 0 0 0 0 0 0 0 0 0 
416 0 0 0 0 0 0 0 0 0 0 
417 0 0 0 0 0 0 0 0 0 0 
418 0 0 0 0 0 0 0 0 0 0 
419 0 0 0 0 0 0 0 0 0 0 
420 0 0 0 0 0 0 0 0 0 0 
421 0 0 0 0 0 0 0 0 0 0 
422 0 0 0 0 0 0 0 0 0 0 
423 0 0 0 0 0 0 0 0 0 0 
424 0 0 0 0 0 0 0 0 0 0 
425 0 0 0 0 0 0 0 0 0 0 
426 0 0 0 0 0 0 0 0 0 0 
427 0 0 0 0 0 0 0 0 0 0 
428 0 0 0 0 0 0 0 0 0 0 
429 0 0 0 0 0 0 0 0 0 0 
430 0 0 0 0 0 0 0 0 0 0 
431 0 0 0 0 0 0 0 0 0 0 
432 0 0 0 0 0 0 0 0 0 0 
433 0 0 0 0 0 0 0 0 0 0 
434 0 0 0 0 0 0 0 0 0 0 
435 0 0 0 0 0 0 0 0 0 0 
436 0 0 0 0 0 0 0 0 0 0 
437 0 0 0 0 0 0 0 0 0 0 
438 0 0 0 0 0 0 0 0 0 0 
439 0 0 0 0 0 0 0 0 0 0 
440 0 0 0 0 0 0 0 0 0 0 
441 3.438e+20 2.28039e-05 1755.1 160.4 74.9276 0 0 146.62 0.695955 0.6876 
442 2.1018e+21 0.00013941 1705.23 30.9128 -127.178 0 0 235.99 6.84807 4.2036 
443 1.3094e+21 8.68512e-05 1577.73 -142.551 -6.32792 0 0 291.633 5.27221 2.6188 
444 1.2327e+21 8.17638e-05 1349.35 -116.158 -149.765 0 0 288.285 4.9064 2.4654 
445 6.594e+20 4.37373e-05 1786.34 37.5394 122.28 0 0 198.198 1.8044 1.3188 
446 1.1914e+21 7.90244e-05 1723.1 -25.7639 54.101 0 0 250.962 4.12808 2.3828 
447 1.3834e+21 9.17595e-05 1725.63 -160.737 27.6927 0 0 268.367 5.12578 2.7668 
448 1.3897e+21 9.21774e-05 1842.21 -115.997 29.9787 0 0 276.827 5.31145 2.7794 
449 1.396e+21 9.25953e-05 1872.64 22.7346 -17.4847 0 0 296.027 5.70559 2.792 
450 1.2349e+21 8.19097e-05 1827.18 -16.3757 13.2372 0 0 236.385 4.03028 2.4698 
451 1.04e+21 6.89822e-05 1887.98 231.593 111.37 0 0 377.911 5.42633 2.08 
452 2.1394e+21 0.000141904 1697.03 -21.5021 -5.66045 0 0 333.125 9.83972 4.2788 
453 1.3036e+21 8.64665e-05 1798.64 102.533 -68.0961 0 0 249.128 4.48384 2.6072 
454 2.0183e+21 0.000133872 1763.28 195.406 61.9391 0 0 314.046 8.75109 4.0366 
455 1.6383e+21 0.000108667 1837 -69.0076 -84.424 0 0 178.454 4.03649 3.2766 
456 1.3575e+21 9.00416e-05 1722.02 -164.84 -117.818 0 0 361.634 6.77785 2.715 
457 9.362e+20 6.20972e-05 1741.37 -115.738 -118.928 0 0 233.917 3.02353 1.8724 
458 1.4639e+21 9.7099e-05 1618.67 -63.7334 -104.532 0 0 168.724 3.41013 2.9278 
459 1.5581e+21 0.000103347 1507.01 64.2785 15.943 0 0 193.81 4.16921 3.1162 
460 1.7783e+21 0.000117953 1701.34 -2.0901 3.94812 0 0 267.417 6.56564 3.5566 
461 1.9916e+21 0.000132101 1632.06 -19.8335 -55.3757 0 0 433.053 11.9077 3.9832 
462 1.1663e+21 7.73595e-05 1881.91 -7.5109 -54.1035 0 0 218.351 3.516 2.3326 
463 1.023e+21 6.78546e-05 1511.33 37.9179 17.4625 0 0 897.393 12.6748 2.046 
464 4.9188e+21 0.000326259 365.846 122.379 30.7705 0 0 1922.12 130.534 3.2792 
465 0 0 0 0 0 0 0 0 0 0 
466 0 0 0 0 0 0 0 0 0 0 
467 0 0 0 0 0 0 0 0 0 0 
468 0 0 0 0 0 0 0 0 0 0 
469 0 0 0 0 0 0 0 0 0 0 
470 0 0 0 0 0 0 0 0 0 0 
471 0 0 0 0 0 0 0 0 0 0 
472 0 0 0 0 0 0 0 0 0 0 
473 0 0 0 0 0 0 0 0 0 0 
474 0 0 0 0 0 0 0 0 0 0 
475 0 0 0 0 0 0 0 0 0 0 
476 0 0 0 0 0 0 0 0 0 0 
477 0 0 0 0 0 0 0 0 0 0 
478 0 0 0 0 0 0 0 0 0 0 
479 0 0 0 0 0 0 0 0 0 0 
480 0 0 0 0 0 0 0 0 0 0 
481 0 0 0 0 0 0 0 0 0 0 
482 0 0 0 0 0 0 0 0 0 0 
483 0 0 0 0 0 0 0 0 0 0 
484 0 0 0 0 0 0 0 0 0 0 
485 0 0 0 0 0 0 0 0 0 0 
486 0 0 0 0 0 0 0 0 0 0 
487 0 0 0 0 0 0 0 0 0 0 
488 0 0 0 0 0 0 0 0 0 0 
489 0 0 0 0 0 0 0 0 0 0 
490 0 0 0 0 0 0 0 0 0 0 
491 3.998e+20 2.65183e-05 1767.88 -24.4934 19.5982 0 0 161.82 0.89322 0.7996 
492 1.4199e+21 9.41805e-05 1897.3 59.2645 110.711 0 0 193.491 3.79317 2.8398 
493 1.7905e+21 0.000118762 1577.28 15.6785 170.939 0 0 480.619 11.8812 3.581 
494 1.1183e+21 7.41757e-05 1767.45 61.2319 97.5793 0 0 221.87 3.42563 2.2366 
495 1.9516e+21 0.000129448 1755.31 50.3834 -34.0415 0 0 318.128 8.57188 3.9032 
496 1.7969e+21 0.000119187 1651.65 -73.7479 43.5937 0 0 206.099 5.11309 3.5938 
497 2.1775e+21 0.000144431 1743.09 -33.8609 101.297 0 0 123.697 3.71878 4.355 
498 1.4841e+21 9.84389e-05 1852.45 -186.466 21.5354 0 0 151.702 3.10841 2.9682 
499 1.2736e+21 8.44766e-05 1746.16 -154.915 68.578 0 0 251.755 4.42684 2.5472 
500 8.329e+20 5.52454e-05 1745.9 166.043 238.937 0 0 238.662 2.74448 1.6658 
501 1.9463e+21 0.000129096 1765.1 103.344 -24.5837 0 0 307.44 8.26139 3.8926 
502 1.2577e+21 8.3422e-05 1762.32 23.1856 -20.164 0 0 133.988 2.32662 2.5154 
503 1.6338e+21 0.000108368 1737.63 11.7816 -35.4838 0 0 176.134 3.97307 3.2676 
504 1.0556e+21 7.00169e-05 1719.14 -15.5021 -62.5425 0 0 205.609 2.99658 2.1112 
505 1.8095e+21 0.000120022 1829.53 -22.6747 65.7135 0 0 340.061 8.49569 3.619 
506 1.1874e+21 7.87591e-05 1907.68 -31.3524 -94.4741 0 0 209.327 3.43167 2.3748 
507 1.3732e+21 9.1083e-05 1635.84 -97.3385 78.1434 0 0 263.245 4.99088 2.7464 
508 1.3758e+21 9.12554e-05 1799.69 14.2791 53.1273 0 0 128.408 2.43911 2.7516 
509 1.9744e+21 0.00013096 1689.08 -41.3661 -41.8755 0 0 155.381 4.2356 3.9488 
510 1.1828e+21 7.84539e-05 1705.54 -101.992 -227.945 0 0 189.067 3.08752 2.3656 
511 1.4827e+21 9.8346e-05 1602.12 31.2443 -49.9332 0 0 321.093 6.57306 2.9654 
512 2.0268e+21 0.000134436 1541.75 -108.6 -37.0529 0 0 316.981 8.87007 4.0536 
513 2.0059e+21 0.000133049 1756.14 -63.6362 -137.699 0 0 302.692 8.38288 4.0118 
514 1.8904e+21 0.000125388 1327.42 186.964 -66.2748 0 0 1232.94 32.1794 3.7808 
515 1.374e+21 9.1136e-05 1275.76 246.331 -104.319 0 0 1051.15 19.9405 2.748 
516 1.1237e+21 7.45339e-05 1399.47 261.495 -293.4 0 0 806.632 12.5144 2.2474 
517 1.2824e+21 8.50603e-05 1567.86 -175.321 -22.3532 0 0 395.503 7.00256 2.5648 
518 1.5631e+21 0.000103679 1537.65 -95.4335 -15.2286 0 0 547.657 11.8189 3.1262 
519 1.4352e+21 9.51954e-05 1261.01 -42.0099 48.9109 0 0 1170.01 23.1839 2.8704 
520 1.814e+21 0.000120321 1683.58 101.742 -139.226 0 0 492.401 12.3322 3.628 
521 2.0575e+21 0.000136472 1548.92 -31.0478 -132.298 0 0 808.344 22.9625 4.115 
522 1.6596e+21 0.00011008 1070.11 147.652 -130.126 0 0 1387.27 31.7869 3.3192 
523 1.5277e+21 0.000101331 1050.98 57.4054 36.8256 0 0 1577.27 33.2681 3.0554 
524 1.5958e+21 0.000105848 1810.49 -115.631 -53.3473 0 0 169.411 3.73252 3.1916 
525 1.422e+21 9.43198e-05 1744.06 44.3539 -92.6103 0 0 261.84 5.14066 2.844 
526 9.692e+20 6.42861e-05 1811.14 121.733 30.8891 0 0 198.434 2.65529 1.9384 
527 1.4616e+21 9.69465e-05 1824.33 -70.6999 -209.07 0 0 288.082 5.81336 2.9232 
528 1.2414e+21 8.23408e-05 1019.13 -30.3441 -218.702 0 0 1573.89 26.9755 2.4828 
529 1.1502e+21 7.62916e-05 1280 91.1351 -165.082 0 0 1147.85 18.2281 2.3004 
530 1.1644e+21 7.72335e-05 1746.62 -111.873 -65.29 0 0 391.087 6.28722 2.3288 
531 1.9676e+21 0.000130509 1735.09 29.872 16.2373 0 0 217.23 5.90118 3.9352 
532 1.5872e+21 0.000105277 1797.96 -93.0417 16.0301 0 0 234.693 5.14299 3.1744 
533 1.8346e+21 0.000121687 1370.78 -143.669 191.299 0 0 877.731 22.2324 3.6692 
534 7.833e+20 5.19555e-05 1574.54 277.967 -233.992 0 0 516.77 5.58868 1.5666 
535 2.0674e+21 0.000137129 1594.18 -58.7198 29.7477 0 0 650 18.5533 4.1348 
536 1.5329e+21 0.000101676 1454.2 -103.036 -38.457 0 0 1031.69 21.8346 3.0658 
537 1.2503e+21 8.29311e-05 1593.93 -136.376 96.647 0 0 251.71 4.34508 2.5006 
538 1.6717e+21 0.000110882 1720.24 -26.8806 14.6073 0 0 375.108 8.6576 3.3434 
539 9.705e+20 6.43723e-05 1377.85 76.2438 -95.1583 0 0 800.164 10.7216 1.941 
540 1.9449e+21 0.000129003 1103.09 145.201 51.2175 0 0 877.457 23.5617 3.8898 
541 9.651e+20 6.40141e-05 1391.48 -105.276 -336.241 0 0 327.259 4.36061 1.9302 
542 1.2802e+21 8.49144e-05 1616.41 -135.281 39.8799 0 0 123.911 2.19014 2.5604 
543 1.0461e+21 6.93868e-05 1665.04 -40.4764 27.2228 0 0 280.183 4.04668 2.0922 
544 1.8136e+21 0.000120294 1575.27 64.7417 -125.988 0 0 217.227 5.43924 3.6272 
545 1.7747e+21 0.000117714 1760.44 102.033 -74.0786 0 0 287.1 7.03463 3.5494 
546 1.2113e+21 8.03443e-05 1895.46 18.7791 -47.1814 0 0 296.72 4.96228 2.4226 
547 1.5314e+21 0.000101576 1716.59 -25.8856 140.538 0 0 532.174 11.2519 3.0628 
548 9.063e+20 6.0114e-05 1759.9 -119.516 -24.1252 0 0 341.009 4.26699 1.8126 
549 1.517e+21 0.000100621 1716.83 -74.0624 -154.047 0 0 166.576 3.48885 3.034 
550 1.6982e+21 0.00011264 1788.68 -78.0063 -115.027 0 0 243.539 5.71007 3.3964 
551 1.4424e+21 9.56729e-05 1779.34 -77.3663 -41.0603 0 0 161.431 3.21481 2.8848 
552 1.4633e+21 9.70592e-05 1742.39 -118.405 -62.5961 0 0 183.564 3.70855 2.9266 
553 1.2007e+21 7.96412e-05 1687.74 -41.147 -28.1877 0 0 351.106 5.82045 2.4014 
554 1.8507e+21 0.000122755 1629.3 22.2979 30.1863 0 0 252.209 6.44436 3.7014 
555 8.594e+20 5.70031e-05 1845.02 -61.7841 -62.5476 0 0 215.507 2.55706 1.7188 
556 1.4512e+21 9.62566e-05 1694.34 -231.097 -127.217 0 0 297.36 5.9579 2.9024 
557 1.288e+21 8.54318e-05 1766.23 -157.026 186.869 0 0 282.482 5.02331 2.576 