ITEM: TIMESTEP
30000
ITEM: NUMBER OF CELLS
2500
ITEM: BOX BOUNDS oo rr pp
0 1.5
0 0.5
-0.5 0.5
ITEM: CELLS id f_1[1] f_1[2] f_1[3] f_1[4] f_1[5] f_1[6] f_1[7] f_5[1] f_5[2] f_1[8] 
1 8.154e+20 5.40847e-05 1732.87 6.89856 151.888 0 0 137.296 1.54566 1.6308 
2 2.4599e+21 0.000163163 1777.02 52.8002 54.3677 0 0 334.25 11.352 4.9198 
3 3.0863e+21 0.000204711 1778.91 32.5344 62.1099 0 0 326.871 13.9283 6.1726 
4 1.9372e+21 0.000128493 1736.26 -7.79071 145.488 0 0 313.98 8.3977 3.8744 
5 9.693e+20 6.42927e-05 1663.58 74.9085 103.072 0 0 204.398 2.73538 1.9386 
6 1.4272e+21 9.46647e-05 1623.23 27.8122 334.763 0 0 203.701 4.01384 2.8544 
7 2.3902e+21 0.00015854 1678.38 -114.333 210.321 0 0 175.09 5.77801 4.7804 
8 1.6706e+21 0.000110809 1852.25 -39.4101 49.835 0 0 160.284 3.69698 3.3412 
9 1.4202e+21 9.42004e-05 1821.07 -20.8926 -70.0411 0 0 209.356 4.10505 2.8404 
10 2.5199e+21 0.000167142 1713.11 2.96678 47.1903 0 0 474.643 16.5133 5.0398 
11 2.282e+21 0.000151363 1684.72 21.7944 128.267 0 0 613.579 19.3317 4.564 
12 4.1768e+21 0.000277043 701.811 78.653 10.9251 0 0 1926.96 111.122 8.3536 
13 5.4635e+21 0.000362388 360.729 133.702 334.051 0 0 2965.54 223.696 10.927 
14 1.3362e+22 0.000886288 -4.53696 -19.2963 -78.9569 0 0 894.496 165.019 8.908 
15 0 0 0 0 0 0 0 0 0 0 
16 0 0 0 0 0 0 0 0 0 0 
17 0 0 0 0 0 0 0 0 0 0 
18 0 0 0 0 0 0 0 0 0 0 
19 0 0 0 0 0 0 0 0 0 0 
20 0 0 0 0 0 0 0 0 0 0 
21 0 0 0 0 0 0 0 0 0 0 
22 0 0 0 0 0 0 0 0 0 0 
23 0 0 0 0 0 0 0 0 0 0 
24 0 0 0 0 0 0 0 0 0 0 
25 0 0 0 0 0 0 0 0 0 0 
26 0 0 0 0 0 0 0 0 0 0 
27 0 0 0 0 0 0 0 0 0 0 
28 0 0 0 0 0 0 0 0 0 0 
29 0 0 0 0 0 0 0 0 0 0 
30 0 0 0 0 0 0 0 0 0 0 
31 0 0 0 0 0 0 0 0 0 0 
32 0 0 0 0 0 0 0 0 0 0 
33 0 0 0 0 0 0 0 0 0 0 
34 0 0 0 0 0 0 0 0 0 0 
35 0 0 0 0 0 0 0 0 0 0 
36 0 0 0 0 0 0 0 0 0 0 
37 0 0 0 0 0 0 0 0 0 0 
38 0 0 0 0 0 0 0 0 0 0 
39 0 0 0 0 0 0 0 0 0 0 
40 0 0 0 0 0 0 0 0 0 0 
41 0 0 0 0 0 0 0 0 0 0 
42 0 0 0 0 0 0 0 0 0 0 
43 0 0 0 0 0 0 0 0 0 0 
44 0 0 0 0 0 0 0 0 0 0 
45 0 0 0 0 0 0 0 0 0 0 
46 0 0 0 0 0 0 0 0 0 0 
47 3.617e+20 2.39912e-05 1408.02 -35.2116 -94.649 0 0 208.734 1.04238 0.7234 
48 1.6663e+21 0.000110524 1451.09 93.0438 28.6084 0 0 278.493 6.40694 3.3326 
49 5.313e+20 3.52406e-05 1341.82 270.187 40.4419 0 0 134.754 0.988471 1.0626 
50 4.236e+20 2.8097e-05 2027.12 38.4522 213.966 0 0 60.9856 0.35667 0.8472 
51 1.8033e+21 0.000119611 1629.33 -106.294 192.152 0 0 183.897 4.57854 3.6066 
52 2.2715e+21 0.000150666 1597.68 -184.24 87.7732 0 0 310.389 9.73426 4.543 
53 1.349e+21 8.94778e-05 1678.04 -26.1393 -85.7485 0 0 269.188 5.01361 2.698 
54 1.7903e+21 0.000118749 1833.63 3.57189 72.1617 0 0 248.254 6.13628 3.5806 
55 2.1028e+21 0.000139477 1810.39 -124.335 -53.1768 0 0 288.659 8.38042 4.2056 
56 2.4134e+21 0.000160078 1796.54 -43.7191 -190.597 0 0 428.625 14.282 4.8268 
57 1.2148e+21 8.05765e-05 1661.15 -111.839 -236.108 0 0 456.92 7.66352 2.4296 
58 3.049e+20 2.02237e-05 1967.48 107.184 -376.378 0 0 -1.07284e-09 -4.51623e-12 0.6098 
59 9.759e+20 6.47305e-05 1816.76 -132.515 -39.3977 0 0 244.583 3.29545 1.9518 
60 1.3748e+21 9.11891e-05 1926.82 -118.136 3.71542 0 0 532.596 10.1093 2.7496 
61 1.1974e+21 7.94223e-05 1518.51 -224.842 84.9 0 0 1141.78 18.8758 2.3948 
62 2.7842e+21 0.000184673 846.507 -87.6083 100.837 0 0 2246.85 86.3689 5.5684 
63 7.1537e+21 0.000474498 124.152 19.695 113.439 0 0 2606.57 257.444 14.3074 
64 1.31907e+22 0.000874926 1.054 53.7171 78.4546 0 0 1520.73 276.951 8.7938 
65 0 0 0 0 0 0 0 0 0 0 
66 0 0 0 0 0 0 0 0 0 0 
67 0 0 0 0 0 0 0 0 0 0 
68 0 0 0 0 0 0 0 0 0 0 
69 0 0 0 0 0 0 0 0 0 0 
70 0 0 0 0 0 0 0 0 0 0 
71 0 0 0 0 0 0 0 0 0 0 
72 0 0 0 0 0 0 0 0 0 0 
73 0 0 0 0 0 0 0 0 0 0 
74 0 0 0 0 0 0 0 0 0 0 
75 0 0 0 0 0 0 0 0 0 0 
76 0 0 0 0 0 0 0 0 0 0 
77 0 0 0 0 0 0 0 0 0 0 
78 0 0 0 0 0 0 0 0 0 0 
79 0 0 0 0 0 0 0 0 0 0 
80 0 0 0 0 0 0 0 0 0 0 
81 0 0 0 0 0 0 0 0 0 0 
82 0 0 0 0 0 0 0 0 0 0 
83 0 0 0 0 0 0 0 0 0 0 
84 0 0 0 0 0 0 0 0 0 0 
85 0 0 0 0 0 0 0 0 0 0 
86 0 0 0 0 0 0 0 0 0 0 
87 0 0 0 0 0 0 0 0 0 0 
88 0 0 0 0 0 0 0 0 0 0 
89 0 0 0 0 0 0 0 0 0 0 
90 0 0 0 0 0 0 0 0 0 0 
91 0 0 0 0 0 0 0 0 0 0 
92 0 0 0 0 0 0 0 0 0 0 
93 0 0 0 0 0 0 0 0 0 0 
94 0 0 0 0 0 0 0 0 0 0 
95 0 0 0 0 0 0 0 0 0 0 
96 0 0 0 0 0 0 0 0 0 0 
97 7.227e+20 4.7936e-05 1113.09 34.3401 -115.406 0 0 89.045 0.888487 1.4454 
98 9.276e+20 6.15268e-05 1512.46 74.2668 -103.687 0 0 165.926 2.12499 1.8552 
99 9.431e+20 6.25549e-05 1681.24 175.219 -114.653 0 0 346.706 4.51442 1.8862 
100 6.876e+20 4.56078e-05 1731.64 -49.9014 -157.965 0 0 94.1439 0.89374 1.3752 
101 1.686e+21 0.000111831 1758.49 151.945 -13.6402 0 0 309.287 7.19951 3.372 
102 1.7215e+21 0.000114185 1781.51 -54.4206 35.656 0 0 395.613 9.40288 3.443 
103 1.6209e+21 0.000107513 1641.04 -60.5054 51.8091 0 0 266.494 5.96385 3.2418 
104 8.673e+20 5.75271e-05 1720.15 -105.455 67.0356 0 0 217.755 2.60748 1.7346 
105 1.3768e+21 9.13218e-05 2004.29 -124.306 22.9967 0 0 254.95 4.84629 2.7536 
106 9.524e+20 6.31717e-05 2138.41 -157.057 -68.3901 0 0 318.959 4.19409 1.9048 
107 1.2205e+21 8.09545e-05 1803.73 63.9061 -257.07 0 0 304.647 5.13355 2.441 
108 1.5007e+21 9.95399e-05 1566.87 -23.6173 -125.27 0 0 224.099 4.64319 3.0014 
109 1.5194e+21 0.00010078 1888.52 -178.83 -55.3604 0 0 367.955 7.71881 3.0388 
110 1.7984e+21 0.000119286 1740.63 49.3896 148.424 0 0 658.876 16.3596 3.5968 
111 2.5255e+21 0.000167514 1452.52 39.182 -51.386 0 0 1563.96 54.5325 5.051 
112 3.1446e+21 0.000208578 405.785 149.447 107.011 0 0 2870.86 124.641 6.2892 
113 6.9703e+21 0.000462333 192.787 48.5133 -186.21 0 0 2763.09 265.907 13.9406 
114 1.48857e+22 0.000987354 66.9735 51.8211 129.701 0 0 1022.89 210.224 9.9238 
115 0 0 0 0 0 0 0 0 0 0 
116 0 0 0 0 0 0 0 0 0 0 
117 0 0 0 0 0 0 0 0 0 0 
118 0 0 0 0 0 0 0 0 0 0 
119 0 0 0 0 0 0 0 0 0 0 
120 0 0 0 0 0 0 0 0 0 0 
121 0 0 0 0 0 0 0 0 0 0 
122 0 0 0 0 0 0 0 0 0 0 
123 0 0 0 0 0 0 0 0 0 0 
124 0 0 0 0 0 0 0 0 0 0 
125 0 0 0 0 0 0 0 0 0 0 
126 0 0 0 0 0 0 0 0 0 0 
127 0 0 0 0 0 0 0 0 0 0 
128 0 0 0 0 0 0 0 0 0 0 
129 0 0 0 0 0 0 0 0 0 0 
130 0 0 0 0 0 0 0 0 0 0 
131 0 0 0 0 0 0 0 0 0 0 
132 0 0 0 0 0 0 0 0 0 0 
133 0 0 0 0 0 0 0 0 0 0 
134 0 0 0 0 0 0 0 0 0 0 
135 0 0 0 0 0 0 0 0 0 0 
136 0 0 0 0 0 0 0 0 0 0 
137 0 0 0 0 0 0 0 0 0 0 
138 0 0 0 0 0 0 0 0 0 0 
139 0 0 0 0 0 0 0 0 0 0 
140 0 0 0 0 0 0 0 0 0 0 
141 0 0 0 0 0 0 0 0 0 0 
142 0 0 0 0 0 0 0 0 0 0 
143 0 0 0 0 0 0 0 0 0 0 
144 1.684e+20 1.11698e-05 826.65 -688.78 164.81 0 0 8.6237e-11 2.00502e-13 0.3368 
145 8.35e+19 5.53847e-06 826.65 -688.78 164.81 0 0 0 0 0.167 
146 0 0 0 0 0 0 0 0 0 0 
147 0 0 0 0 0 0 0 0 0 0 
148 2.422e+20 1.60649e-05 1639.72 277.276 116.879 0 0 16.9351 0.0566299 0.4844 
149 1.0975e+21 7.27961e-05 1687.89 7.49156 9.17461 0 0 155.413 2.35491 2.195 
150 1.4275e+21 9.46846e-05 1742.29 45.9162 -55.057 0 0 195.239 3.84791 2.855 
151 1.4135e+21 9.3756e-05 1898.97 14.6104 128.189 0 0 231.619 4.52015 2.827 
152 1.8696e+21 0.000124009 1717.02 -65.4861 -45.8375 0 0 176.997 4.56875 3.7392 
153 1.9989e+21 0.000132585 1717.78 -116.243 -77.2137 0 0 400.449 11.0515 3.9978 
154 6.761e+20 4.4845e-05 1914.02 228.852 -95.4134 0 0 371.21 3.46509 1.3522 
155 1.0255e+21 6.80204e-05 1895.93 -111.701 17.5833 0 0 146.546 2.07487 2.051 
156 1.1687e+21 7.75187e-05 1918.53 7.52941 8.23758 0 0 134.507 2.17036 2.3374 
157 9.245e+20 6.13212e-05 2114.16 -44.8882 31.338 0 0 57.5165 0.734146 1.849 
158 2.347e+21 0.000155674 1800.79 -125.79 52.113 0 0 275.006 8.91125 4.694 
159 2.0484e+21 0.000135868 1740.69 -93.2022 -81.117 0 0 301.976 8.54024 4.0968 
160 1.0542e+21 6.9924e-05 758.4 -95.4764 108.19 0 0 3957.99 57.6078 2.1084 
161 1.7866e+21 0.000118503 717.281 -148.552 36.334 0 0 3057.02 75.4066 3.5732 
162 3.1197e+21 0.000206927 194.228 -32.6437 96.8885 0 0 3619.35 155.893 6.2394 
163 4.6418e+21 0.000307886 -55.2338 165.156 -163.281 0 0 2275.63 145.838 9.2836 
164 1.18884e+22 0.000788546 -42.1842 -35.9668 113.674 0 0 757.416 124.32 7.9256 
165 0 0 0 0 0 0 0 0 0 0 
166 0 0 0 0 0 0 0 0 0 0 
167 0 0 0 0 0 0 0 0 0 0 
168 0 0 0 0 0 0 0 0 0 0 
169 0 0 0 0 0 0 0 0 0 0 
170 0 0 0 0 0 0 0 0 0 0 
171 0 0 0 0 0 0 0 0 0 0 
172 0 0 0 0 0 0 0 0 0 0 
173 0 0 0 0 0 0 0 0 0 0 
174 0 0 0 0 0 0 0 0 0 0 
175 0 0 0 0 0 0 0 0 0 0 
176 0 0 0 0 0 0 0 0 0 0 
177 0 0 0 0 0 0 0 0 0 0 
178 0 0 0 0 0 0 0 0 0 0 
179 0 0 0 0 0 0 0 0 0 0 
180 0 0 0 0 0 0 0 0 0 0 
181 0 0 0 0 0 0 0 0 0 0 
182 0 0 0 0 0 0 0 0 0 0 
183 0 0 0 0 0 0 0 0 0 0 
184 0 0 0 0 0 0 0 0 0 0 
185 0 0 0 0 0 0 0 0 0 0 
186 0 0 0 0 0 0 0 0 0 0 
187 0 0 0 0 0 0 0 0 0 0 
188 0 0 0 0 0 0 0 0 0 0 
189 0 0 0 0 0 0 0 0 0 0 
190 0 0 0 0 0 0 0 0 0 0 
191 0 0 0 0 0 0 0 0 0 0 
192 0 0 0 0 0 0 0 0 0 0 
193 0 0 0 0 0 0 0 0 0 0 
194 2.481e+20 1.64562e-05 826.65 -688.78 164.81 0 0 4.31809e-11 1.47911e-13 0.4962 
195 0 0 0 0 0 0 0 0 0 0 
196 0 0 0 0 0 0 0 0 0 0 
197 0 0 0 0 0 0 0 0 0 0 
198 3.922e+20 2.60142e-05 1089.69 -150.019 -219.768 0 0 43.114 0.233458 0.7844 
199 1.1533e+21 7.64972e-05 1672.46 -116.199 -175.269 0 0 179.053 2.85106 2.3066 
200 1.2447e+21 8.25597e-05 1750.63 -197.195 -91.2997 0 0 133.856 2.30031 2.4894 
201 9.121e+20 6.04987e-05 1827.9 118.297 131.865 0 0 388.229 4.88893 1.8242 
202 1.1892e+21 7.88784e-05 1668.27 55.4301 -79.3106 0 0 297.811 4.88966 2.3784 
203 9.986e+20 6.62361e-05 1721.62 -93.4441 -35.4143 0 0 218.937 3.01852 1.9972 
204 1.1986e+21 7.95019e-05 1782.54 -51.2092 34.043 0 0 122.071 2.02008 2.3972 
205 1.1542e+21 7.65569e-05 1878.99 -13.1117 -115.104 0 0 152.37 2.42809 2.3084 
206 1.9801e+21 0.000131338 1640.31 103.185 -17.5358 0 0 216.406 5.91616 3.9602 
207 1.3282e+21 8.80982e-05 1725.36 227.098 89.2911 0 0 233.721 4.28591 2.6564 
208 4.374e+20 2.90123e-05 1527.37 -15.3309 98.0255 0 0 339.575 2.05068 0.8748 
209 1.0693e+21 7.09256e-05 1707.54 16.1382 155.907 0 0 201.244 2.97102 2.1386 
210 1.7448e+21 0.000115731 1816.99 97.339 27.2975 0 0 568.934 13.7054 3.4896 
211 1.176e+21 7.80029e-05 1391.56 148.395 82.9638 0 0 738.165 11.9852 2.352 
212 3.4017e+21 0.000225631 271.676 276.298 -255.363 0 0 4179.18 196.278 6.8034 
213 5.1822e+21 0.00034373 132.598 254.608 38.7446 0 0 2889.56 206.743 10.3644 
214 1.67343e+22 0.00110997 34.7534 31.8097 -102.807 0 0 851.893 196.823 11.1562 
215 0 0 0 0 0 0 0 0 0 0 
216 0 0 0 0 0 0 0 0 0 0 
217 0 0 0 0 0 0 0 0 0 0 
218 0 0 0 0 0 0 0 0 0 0 
219 0 0 0 0 0 0 0 0 0 0 
220 0 0 0 0 0 0 0 0 0 0 
221 0 0 0 0 0 0 0 0 0 0 
222 0 0 0 0 0 0 0 0 0 0 
223 0 0 0 0 0 0 0 0 0 0 
224 0 0 0 0 0 0 0 0 0 0 
225 0 0 0 0 0 0 0 0 0 0 
226 0 0 0 0 0 0 0 0 0 0 
227 0 0 0 0 0 0 0 0 0 0 
228 0 0 0 0 0 0 0 0 0 0 
229 0 0 0 0 0 0 0 0 0 0 
230 0 0 0 0 0 0 0 0 0 0 
231 0 0 0 0 0 0 0 0 0 0 
232 0 0 0 0 0 0 0 0 0 0 
233 0 0 0 0 0 0 0 0 0 0 
234 0 0 0 0 0 0 0 0 0 0 
235 0 0 0 0 0 0 0 0 0 0 
236 0 0 0 0 0 0 0 0 0 0 
237 0 0 0 0 0 0 0 0 0 0 
238 0 0 0 0 0 0 0 0 0 0 
239 0 0 0 0 0 0 0 0 0 0 
240 0 0 0 0 0 0 0 0 0 0 
241 0 0 0 0 0 0 0 0 0 0 
242 0 0 0 0 0 0 0 0 0 0 
243 0 0 0 0 0 0 0 0 0 0 
244 0 0 0 0 0 0 0 0 0 0 
245 3.6e+19 2.38784e-06 807.698 -600.544 -435.302 0 0 -1.44661e-11 -7.19014e-15 0.072 
246 0 0 0 0 0 0 0 0 0 0 
247 0 0 0 0 0 0 0 0 0 0 
248 0 0 0 0 0 0 0 0 0 0 
249 7.209e+20 4.78166e-05 1667.68 -144.276 39.5368 0 0 89.9231 0.895013 1.4418 
250 1.3852e+21 9.18789e-05 1803.69 -147.352 -22.1636 0 0 170.931 3.26901 2.7704 
251 2.7708e+21 0.000183784 1731.82 118.404 97.5428 0 0 180.349 6.89924 5.5416 
252 1.7478e+21 0.00011593 1631.7 12.1875 46.4146 0 0 156.843 3.78478 3.4956 
253 1.4392e+21 9.54607e-05 1676.93 -45.2484 161.84 0 0 207.067 4.11449 2.8784 
254 2.1534e+21 0.000142833 1780.83 3.0125 106.91 0 0 212.381 6.31428 4.3068 
255 2.1387e+21 0.000141858 1722.64 -99.5234 69.0724 0 0 190.682 5.63043 4.2774 
256 2.2059e+21 0.000146315 1658.96 -53.5413 7.49359 0 0 233.421 7.109 4.4118 
257 9.548e+20 6.33309e-05 1826.49 107.27 -100.72 0 0 135.615 1.78774 1.9096 
258 1.0994e+21 7.29221e-05 1893.33 -24.7422 86.3598 0 0 124.764 1.89377 2.1988 
259 1.097e+21 7.27629e-05 1865.69 24.2115 106.511 0 0 63.2601 0.95812 2.194 
260 7.808e+20 5.17897e-05 1622.99 232.55 -43.8786 0 0 106.534 1.14845 1.5616 
261 1.1033e+21 7.31808e-05 1351.19 198.23 78.7025 0 0 805.632 12.272 2.2066 
262 3.0242e+21 0.000200592 886.528 320.872 -114.713 0 0 2975.94 124.256 6.0484 
263 4.2651e+21 0.0002829 33.7182 324.828 31.9242 0 0 2556.83 150.562 8.5302 
264 2.6034e+22 0.00172681 3.4802 72.029 130.74 0 0 1275.4 458.426 17.356 
265 0 0 0 0 0 0 0 0 0 0 
266 0 0 0 0 0 0 0 0 0 0 
267 0 0 0 0 0 0 0 0 0 0 
268 0 0 0 0 0 0 0 0 0 0 
269 0 0 0 0 0 0 0 0 0 0 
270 0 0 0 0 0 0 0 0 0 0 
271 0 0 0 0 0 0 0 0 0 0 
272 0 0 0 0 0 0 0 0 0 0 
273 0 0 0 0 0 0 0 0 0 0 
274 0 0 0 0 0 0 0 0 0 0 
275 0 0 0 0 0 0 0 0 0 0 
276 0 0 0 0 0 0 0 0 0 0 
277 0 0 0 0 0 0 0 0 0 0 
278 0 0 0 0 0 0 0 0 0 0 
279 0 0 0 0 0 0 0 0 0 0 
280 0 0 0 0 0 0 0 0 0 0 
281 0 0 0 0 0 0 0 0 0 0 
282 0 0 0 0 0 0 0 0 0 0 
283 0 0 0 0 0 0 0 0 0 0 
284 0 0 0 0 0 0 0 0 0 0 
285 0 0 0 0 0 0 0 0 0 0 
286 0 0 0 0 0 0 0 0 0 0 
287 0 0 0 0 0 0 0 0 0 0 
288 0 0 0 0 0 0 0 0 0 0 
289 0 0 0 0 0 0 0 0 0 0 
290 0 0 0 0 0 0 0 0 0 0 
291 0 0 0 0 0 0 0 0 0 0 
292 0 0 0 0 0 0 0 0 0 0 
293 0 0 0 0 0 0 0 0 0 0 
294 2.241e+20 1.48643e-05 807.698 -600.544 -435.302 0 0 -4.91333e-11 -1.5202e-13 0.4482 
295 3.906e+20 2.59081e-05 980.177 -667.136 -228.624 0 0 47.6061 0.256731 0.7812 
296 0 0 0 0 0 0 0 0 0 0 
297 0 0 0 0 0 0 0 0 0 0 
298 4.838e+20 3.209e-05 1819.33 48.6323 128.288 0 0 141.725 0.946661 0.9676 
299 1.6526e+21 0.000109615 1610.44 -15.621 29.1379 0 0 122.948 2.80525 3.3052 
300 1.0128e+21 6.7178e-05 1737.8 -76.9652 175.164 0 0 184.061 2.57377 2.0256 
301 1.153e+21 7.64773e-05 1461.56 -112.926 63.3308 0 0 201.229 3.20334 2.306 
302 1.732e+21 0.000114882 1894.08 7.76638 -71.2234 0 0 189.768 4.53789 3.464 
303 2.127e+21 0.000141082 1702.02 77.0169 29.3325 0 0 274.779 8.06926 4.254 
304 9.846e+20 6.53075e-05 1918.1 -47.0251 105.393 0 0 173.082 2.35285 1.9692 
305 1.044e+21 6.92475e-05 1747.04 82.1208 -6.47175 0 0 249.246 3.59262 2.088 
306 1.0824e+21 7.17945e-05 1844.36 44.2761 165.33 0 0 313.1 4.67901 2.1648 
307 1.8551e+21 0.000123047 1642.06 186.429 81.3495 0 0 324.477 8.31065 3.7102 
308 1.513e+21 0.000100356 1917.91 82.1228 -100.96 0 0 317.617 6.63476 3.026 
309 6.461e+20 4.28552e-05 1916.17 73.9829 -187.845 0 0 305.41 2.72437 1.2922 
310 5.664e+20 3.75687e-05 1703.33 20.4443 -223.228 0 0 64.2243 0.502234 1.1328 
311 1.3609e+21 9.02671e-05 1826.85 -6.93825 56.4123 0 0 285.682 5.36776 2.7218 
312 3.4585e+21 0.000229399 578.553 307.986 57.4123 0 0 3251.44 155.255 6.917 
313 7.6607e+21 0.000508127 -177.327 210.894 -142.699 0 0 2419.94 255.95 15.3214 
314 9.8541e+21 0.000653613 36.5793 77.5479 5.99056 0 0 1042.08 141.776 6.5694 
315 0 0 0 0 0 0 0 0 0 0 
316 0 0 0 0 0 0 0 0 0 0 
317 0 0 0 0 0 0 0 0 0 0 
318 0 0 0 0 0 0 0 0 0 0 
319 0 0 0 0 0 0 0 0 0 0 
320 0 0 0 0 0 0 0 0 0 0 
321 0 0 0 0 0 0 0 0 0 0 
322 0 0 0 0 0 0 0 0 0 0 
323 0 0 0 0 0 0 0 0 0 0 
324 0 0 0 0 0 0 0 0 0 0 
325 0 0 0 0 0 0 0 0 0 0 
326 0 0 0 0 0 0 0 0 0 0 
327 0 0 0 0 0 0 0 0 0 0 
328 0 0 0 0 0 0 0 0 0 0 
329 0 0 0 0 0 0 0 0 0 0 
330 0 0 0 0 0 0 0 0 0 0 
331 0 0 0 0 0 0 0 0 0 0 
332 0 0 0 0 0 0 0 0 0 0 
333 0 0 0 0 0 0 0 0 0 0 
334 0 0 0 0 0 0 0 0 0 0 
335 0 0 0 0 0 0 0 0 0 0 
336 0 0 0 0 0 0 0 0 0 0 
337 0 0 0 0 0 0 0 0 0 0 
338 0 0 0 0 0 0 0 0 0 0 
339 0 0 0 0 0 0 0 0 0 0 
340 0 0 0 0 0 0 0 0 0 0 
341 0 0 0 0 0 0 0 0 0 0 
342 0 0 0 0 0 0 0 0 0 0 
343 0 0 0 0 0 0 0 0 0 0 
344 2.725e+20 1.80747e-05 931.883 -648.49 -286.493 0 0 59.1027 0.22236 0.545 
345 1.57e+20 1.04137e-05 975.791 -640.765 -130.897 0 0 12.3963 0.0268704 0.314 
346 0 0 0 0 0 0 0 0 0 0 
347 0 0 0 0 0 0 0 0 0 0 
348 5.39e+20 3.57513e-05 1632.65 166.344 62.9407 0 0 149.49 1.11246 1.078 
349 1.6964e+21 0.000112521 1596.27 35.2474 38.8312 0 0 218.168 5.10978 3.3928 
350 9.76e+20 6.47371e-05 1908.95 73.7638 -39.267 0 0 139.082 1.87415 1.952 
351 1.3533e+21 8.9763e-05 1512.59 196.264 -48.3947 0 0 71.7133 1.33991 2.7066 
352 1.281e+21 8.49674e-05 1774.62 127.893 -66.7574 0 0 183.655 3.24814 2.562 
353 2.1125e+21 0.00014012 1851.42 49.0775 -141.77 0 0 272.755 7.95522 4.225 
354 1.2649e+21 8.38996e-05 1770.55 27.233 -160.018 0 0 324.79 5.67208 2.5298 
355 9.87e+20 6.54667e-05 1752.26 136.862 -78.5046 0 0 230.896 3.14642 1.974 
356 1.4617e+21 9.69531e-05 1821.67 96.4119 29.2456 0 0 305.558 6.16645 2.9234 
357 1.0427e+21 6.91612e-05 1791.1 -72.9057 89.7506 0 0 205.937 2.96468 2.0854 
358 1.0619e+21 7.04348e-05 1802.91 -57.4092 -146.065 0 0 168.195 2.46593 2.1238 
359 6.851e+20 4.5442e-05 1713.44 -119.924 152.645 0 0 246.396 2.33061 1.3702 
360 1.627e+21 0.000107917 1720.84 46.3277 -77.6302 0 0 230.484 5.1774 3.254 
361 1.9552e+21 0.000129686 1700.91 -101.056 -99.8924 0 0 548.897 14.8172 3.9104 
362 1.6549e+21 0.000109768 674.049 545.607 343.75 0 0 3404.46 77.7864 3.3098 
363 5.1359e+21 0.000340659 262.191 232.07 -202.19 0 0 2706.47 191.913 10.2718 
364 1.00308e+22 0.000665333 -66.0791 -0.699893 -35.509 0 0 1246.69 172.654 6.6872 
365 0 0 0 0 0 0 0 0 0 0 
366 0 0 0 0 0 0 0 0 0 0 
367 0 0 0 0 0 0 0 0 0 0 
368 0 0 0 0 0 0 0 0 0 0 
369 0 0 0 0 0 0 0 0 0 0 
370 0 0 0 0 0 0 0 0 0 0 
371 0 0 0 0 0 0 0 0 0 0 
372 0 0 0 0 0 0 0 0 0 0 
373 0 0 0 0 0 0 0 0 0 0 
374 0 0 0 0 0 0 0 0 0 0 
375 0 0 0 0 0 0 0 0 0 0 
376 0 0 0 0 0 0 0 0 0 0 
377 0 0 0 0 0 0 0 0 0 0 
378 0 0 0 0 0 0 0 0 0 0 
379 0 0 0 0 0 0 0 0 0 0 
380 0 0 0 0 0 0 0 0 0 0 
381 0 0 0 0 0 0 0 0 0 0 
382 0 0 0 0 0 0 0 0 0 0 
383 0 0 0 0 0 0 0 0 0 0 
384 0 0 0 0 0 0 0 0 0 0 
385 0 0 0 0 0 0 0 0 0 0 
386 0 0 0 0 0 0 0 0 0 0 
387 0 0 0 0 0 0 0 0 0 0 
388 0 0 0 0 0 0 0 0 0 0 
389 0 0 0 0 0 0 0 0 0 0 
390 0 0 0 0 0 0 0 0 0 0 
391 0 0 0 0 0 0 0 0 0 0 
392 0 0 0 0 0 0 0 0 0 0 
393 0 0 0 0 0 0 0 0 0 0 
394 2.822e+20 1.8718e-05 907.742 -590.86 -113.824 0 0 6.83335e-11 2.66241e-13 0.5644 
395 5.63e+19 3.73432e-06 907.742 -590.86 -113.824 0 0 3.43575e-12 2.67062e-15 0.1126 
396 0 0 0 0 0 0 0 0 0 0 
397 7.72e+19 5.1206e-06 1994.69 -577.003 -49.1827 0 0 -2.26661e-10 -2.41589e-13 0.1544 
398 6.328e+20 4.1973e-05 1644.13 20.9224 -55.2795 0 0 193.418 1.68984 1.2656 
399 2.6856e+21 0.000178133 1725.95 -3.13453 -19.62 0 0 266.816 9.89318 5.3712 
400 2.0854e+21 0.000138322 1698.81 -22.9948 -66.5624 0 0 161.609 4.65305 4.1708 
401 1.926e+21 0.00012775 1724.66 -8.65929 37.0225 0 0 347.732 9.24664 3.852 
402 1.9301e+21 0.000128022 1630.29 53.0418 -29.3309 0 0 164.977 4.39629 3.8602 
403 1.1445e+21 7.59135e-05 1686.02 -46.7422 -79.9558 0 0 213.84 3.379 2.289 
404 1.09e+21 7.22986e-05 1648.1 159.917 -74.106 0 0 254.416 3.82873 2.18 
405 1.2973e+21 8.60486e-05 1770.7 141.953 -152.706 0 0 370.6 6.63787 2.5946 
406 1.476e+21 9.79016e-05 1659.2 13.8685 176.528 0 0 276.043 5.62531 2.952 
407 2.1025e+21 0.000139457 1669.33 -59.9309 51.5433 0 0 185.367 5.38086 4.205 
408 1.4983e+21 9.93807e-05 1755.03 -129.786 -61.1239 0 0 224.71 4.64841 2.9966 
409 1.5722e+21 0.000104282 1816.48 -102.311 -52.1566 0 0 176.587 3.8331 3.1444 
410 1.4944e+21 9.91221e-05 1803.81 -13.4332 -115.594 0 0 110.786 2.28578 2.9888 
411 7.679e+20 5.0934e-05 1830.02 -9.30226 -29.6189 0 0 71.9795 0.763127 1.5358 
412 3.1294e+21 0.00020757 723.288 460.355 -205.847 0 0 2487.63 107.481 6.2588 
413 5.5892e+21 0.000370726 68.7111 120.595 105.703 0 0 3003.23 231.751 11.1784 
414 2.08371e+22 0.0013821 45.2452 97.22 24.6903 0 0 1623.86 467.162 13.8914 
415 0 0 0 0 0 0 0 0 0 0 
416 0 0 0 0 0 0 0 0 0 0 
417 0 0 0 0 0 0 0 0 0 0 
418 0 0 0 0 0 0 0 0 0 0 
419 0 0 0 0 0 0 0 0 0 0 
420 0 0 0 0 0 0 0 0 0 0 
421 0 0 0 0 0 0 0 0 0 0 
422 0 0 0 0 0 0 0 0 0 0 
423 0 0 0 0 0 0 0 0 0 0 
424 0 0 0 0 0 0 0 0 0 0 
425 0 0 0 0 0 0 0 0 0 0 
426 0 0 0 0 0 0 0 0 0 0 
427 0 0 0 0 0 0 0 0 0 0 
428 0 0 0 0 0 0 0 0 0 0 
429 0 0 0 0 0 0 0 0 0 0 
430 0 0 0 0 0 0 0 0 0 0 
431 0 0 0 0 0 0 0 0 0 0 
432 0 0 0 0 0 0 0 0 0 0 
433 0 0 0 0 0 0 0 0 0 0 
434 0 0 0 0 0 0 0 0 0 0 
435 0 0 0 0 0 0 0 0 0 0 
436 0 0 0 0 0 0 0 0 0 0 
437 0 0 0 0 0 0 0 0 0 0 
438 0 0 0 0 0 0 0 0 0 0 
439 0 0 0 0 0 0 0 0 0 0 
440 0 0 0 0 0 0 0 0 0 0 
441 3.98e+19 2.63989e-06 829.581 -616.58 660.287 0 0 7.85095e-12 4.31408e-15 0.0796 
442 0 0 0 0 0 0 0 0 0 0 
443 0 0 0 0 0 0 0 0 0 0 
444 8.13e+19 5.39255e-06 907.742 -590.86 -113.824 0 0 -6.22264e-12 -6.98471e-15 0.1626 
445 2.6e+18 1.72455e-07 1838.51 -192.481 -7.07842 0 0 -7.15357e-12 -2.56791e-16 0.0052 
446 3.617e+20 2.39912e-05 1949.22 -465.059 -36.9251 0 0 57.5109 0.287199 0.7234 
447 6.758e+20 4.48251e-05 1428.68 -256.605 81.0328 0 0 353.412 3.29748 1.3516 
448 4.929e+20 3.26936e-05 1605.49 -340.192 6.60636 0 0 183.559 1.24916 0.9858 
449 2.0758e+21 0.000137686 1570.47 -171.649 11.26 0 0 232.863 6.67375 4.1516 
450 1.8518e+21 0.000122828 1607.06 -64.48 62.7922 0 0 238.493 6.09751 3.7036 
451 1.7819e+21 0.000118192 1780.47 -98.1888 -20.8338 0 0 147.57 3.63049 3.5638 
452 2.417e+21 0.000160317 1711.45 -84.4808 69.4913 0 0 265.594 8.86294 4.834 
453 1.4189e+21 9.41142e-05 1802.92 -68.7617 -20.1415 0 0 158.482 3.10467 2.8378 
454 1.5283e+21 0.000101371 1862.2 -147.023 111.406 0 0 247.936 5.23156 3.0566 
455 1.8196e+21 0.000120692 1765.2 -115.66 258.192 0 0 328.851 8.26148 3.6392 
456 1.2684e+21 8.41317e-05 1944.2 -46.2704 33.7364 0 0 358.618 6.28017 2.5368 
457 1.3219e+21 8.76803e-05 1478.38 -11.2336 -131.149 0 0 397.54 7.25542 2.6438 
458 1.2029e+21 7.97872e-05 1805.16 2.4686 117.392 0 0 437.257 7.26189 2.4058 
459 2.6403e+21 0.000175128 1811.96 2.86697 -14.4124 0 0 253.799 9.25182 5.2806 
460 2.0692e+21 0.000137248 1821.43 31.7176 97.2158 0 0 311.679 8.90417 4.1384 
461 1.073e+21 7.1171e-05 1789.69 -189.544 117.192 0 0 209.735 3.10709 2.146 
462 1.4325e+21 9.50163e-05 868.354 675.674 -217.83 0 0 1919.46 37.9626 2.865 
463 6.0779e+21 0.000403141 172.424 188.905 -50.8713 0 0 3092.41 259.498 12.1558 
464 1.45602e+22 0.000965764 35.7911 88.7824 -87.8785 0 0 1388.25 279.074 9.7068 
465 0 0 0 0 0 0 0 0 0 0 
466 0 0 0 0 0 0 0 0 0 0 
467 0 0 0 0 0 0 0 0 0 0 
468 0 0 0 0 0 0 0 0 0 0 
469 0 0 0 0 0 0 0 0 0 0 
470 0 0 0 0 0 0 0 0 0 0 
471 0 0 0 0 0 0 0 0 0 0 
472 0 0 0 0 0 0 0 0 0 0 
473 0 0 0 0 0 0 0 0 0 0 
474 0 0 0 0 0 0 0 0 0 0 
475 0 0 0 0 0 0 0 0 0 0 
476 0 0 0 0 0 0 0 0 0 0 
477 0 0 0 0 0 0 0 0 0 0 
478 0 0 0 0 0 0 0 0 0 0 
479 0 0 0 0 0 0 0 0 0 0 
480 0 0 0 0 0 0 0 0 0 0 
481 0 0 0 0 0 0 0 0 0 0 
482 0 0 0 0 0 0 0 0 0 0 
483 0 0 0 0 0 0 0 0 0 0 
484 0 0 0 0 0 0 0 0 0 0 
485 0 0 0 0 0 0 0 0 0 0 
486 0 0 0 0 0 0 0 0 0 0 
487 0 0 0 0 0 0 0 0 0 0 
488 0 0 0 0 0 0 0 0 0 0 
489 0 0 0 0 0 0 0 0 0 0 
490 0 0 0 0 0 0 0 0 0 0 
491 3.244e+20 2.15171e-05 829.581 -616.58 660.287 0 0 -3.01625e-10 -1.35092e-12 0.6488 
492 3.815e+20 2.53045e-05 1503.52 -423.67 300.084 0 0 -6.48376e-10 -3.41511e-12 0.763 
493 5.32e+19 3.5287e-06 1503.52 -423.67 300.084 0 0 -1.08519e-10 -7.97078e-14 0.1064 
494 1.209e+20 8.01918e-06 1804.89 -350.839 14.7456 0 0 166.51 0.277939 0.2418 
495 7.291e+20 4.83605e-05 1767.07 -364.253 45.4564 0 0 85.6373 0.862051 1.4582 
496 4.154e+20 2.75531e-05 1795.91 -213.898 -157.982 0 0 74.2246 0.425694 0.8308 
497 3.397e+20 2.2532e-05 1725.04 -378.499 -217.696 0 0 266.57 1.25023 0.6794 
498 1.6059e+21 0.000106518 1632.69 -271.632 -103.189 0 0 190.925 4.23317 3.2118 
499 1.4386e+21 9.54209e-05 1709.9 -266.661 -91.2796 0 0 212.266 4.21603 2.8772 
500 8.358e+20 5.54378e-05 1565.69 -167.472 -188.443 0 0 121.863 1.40624 1.6716 
501 2.6013e+21 0.000172542 1826.43 198.675 -89.3898 0 0 213.647 7.6731 5.2026 
502 1.6572e+21 0.00010992 1766.14 84.5584 79.7616 0 0 348.846 7.98165 3.3144 
503 1.4545e+21 9.64755e-05 1836.08 53.0165 150.25 0 0 135.063 2.71227 2.909 
504 1.0785e+21 7.15358e-05 1920.43 20.0073 13.153 0 0 188.54 2.80741 2.157 
505 1.453e+21 9.6376e-05 1804.37 113.322 56.677 0 0 348.736 6.99594 2.906 
506 1.3687e+21 9.07845e-05 1713.23 24.6825 45.0563 0 0 349.834 6.61078 2.7374 
507 1.5871e+21 0.000105271 1794.14 -117.193 86.6111 0 0 285.521 6.25641 3.1742 
508 1.7995e+21 0.000119359 1687.9 -76.8533 -139.413 0 0 212.184 5.27165 3.599 
509 1.4993e+21 9.94471e-05 1803.06 92.6957 39.4928 0 0 150.629 3.11804 2.9986 
510 1.8853e+21 0.00012505 1709.98 -12.9009 -57.6362 0 0 626.765 16.3143 3.7706 
511 1.2034e+21 7.98203e-05 1671.32 15.1953 0.27901 0 0 168.969 2.80738 2.4068 
512 1.3091e+21 8.68313e-05 1133.16 229.916 54.6816 0 0 1895.52 34.2598 2.6182 
513 3.4434e+21 0.000228397 764.48 503.227 -169.851 0 0 2346.23 111.543 6.8868 
514 5.4076e+21 0.000358681 898.765 254.674 -8.08624 0 0 1645.87 122.881 10.8152 
515 2.596e+21 0.00017219 796.994 19.5698 357.922 0 0 1557.38 55.819 5.192 
516 2.0422e+21 0.000135457 1011.46 51.009 74.0568 0 0 1124.83 31.7154 4.0844 
517 1.242e+21 8.23806e-05 189.412 83.9292 -50.7204 0 0 1681.77 28.8384 2.484 
518 7.095e+20 4.70604e-05 763.497 -36.9652 -261.895 0 0 100.591 0.985364 1.419 
519 9.99e+20 6.62627e-05 245.031 -192.445 -343.171 0 0 938.038 12.9381 1.998 
520 3.188e+20 2.11457e-05 107.012 -579.368 157.103 0 0 631.647 2.7802 0.6376 
521 9.284e+20 6.15798e-05 -60.2194 194.034 -77.0444 0 0 162.213 2.07923 1.8568 
522 7.096e+20 4.70671e-05 294.133 0.615292 19.3516 0 0 1061.59 10.4005 1.4192 
523 5.946e+20 3.94392e-05 534.503 -69.3435 130.412 0 0 1747.8 14.3483 1.1892 
524 1.5775e+21 0.000104634 296.456 -17.3493 -270.712 0 0 485.966 10.5842 3.155 
525 0 0 0 0 0 0 0 0 0 0 
526 7.87e+19 5.22009e-06 414.07 300.161 80.2939 0 0 1.03986e-12 1.12988e-15 0.1574 
527 1.108e+21 7.34925e-05 503.949 -51.3544 160.982 0 0 752.197 11.5068 2.216 
528 1.1757e+21 7.7983e-05 208.316 113.363 294.511 0 0 364.228 5.91226 2.3514 
529 1.2889e+21 8.54914e-05 477.852 -34.1989 -207.728 0 0 332.023 5.90841 2.5778 
530 7.779e+20 5.15973e-05 1212.72 -162.566 -36.1417 0 0 414.195 4.44848 1.5558 
531 1.7996e+21 0.000119366 309.872 58.1503 17.1527 0 0 1082.21 26.8889 3.5992 
532 0 0 0 0 0 0 0 0 0 0 
533 1.28e+19 8.49011e-07 395.14 419.648 -285.76 0 0 -3.48736e-12 -6.16298e-16 0.0256 
534 3e+20 1.98987e-05 489.495 -19.321 -259.277 0 0 1032.47 4.27644 0.6 
535 7e+20 4.64303e-05 -102.987 147.149 116.725 0 0 200.13 1.93416 1.4 
536 5.563e+20 3.68988e-05 1513.45 -478.952 263.265 0 0 526.915 4.047 1.1126 
537 2.0132e+21 0.000133534 335.93 264.872 68.9174 0 0 1373.83 38.186 4.0264 
538 1.0742e+21 7.12506e-05 878.967 183.77 123.094 0 0 458.619 6.80175 2.1484 
539 5.029e+20 3.33569e-05 328.499 -109.596 208.909 0 0 548.791 3.81041 1.0058 
540 1.1308e+21 7.50048e-05 263.144 390.185 -192.03 0 0 479.98 7.49363 2.2616 
541 4.276e+20 2.83623e-05 978.494 -535.747 24.0069 0 0 438.571 2.58917 0.8552 
542 1.76e+19 1.16739e-06 1503.52 -423.67 300.084 0 0 -1.01451e-11 -2.46519e-15 0.0352 
543 1.987e+20 1.31796e-05 1450.53 -575.001 158.528 0 0 32.8429 0.0900995 0.3974 
544 5.115e+20 3.39273e-05 1436.77 -412.456 116.39 0 0 38.3514 0.270838 1.023 
545 2.48e+19 1.64496e-06 1495.74 -280.085 178.018 0 0 5.27979e-11 1.80781e-14 0.0496 
546 5.696e+20 3.7781e-05 1735.09 -356.883 82.451 0 0 198.587 1.56173 1.1392 
547 9.454e+20 6.27074e-05 1645.27 -176.24 61.5309 0 0 363.218 4.74096 1.8908 
548 9.847e+20 6.53142e-05 1719.89 -207.651 -16.0484 0 0 302.905 4.11807 1.9694 
549 1.4954e+21 9.91884e-05 1701.49 -15.1882 -48.8794 0 0 327.228 6.75603 2.9908 
550 6.229e+20 4.13163e-05 1782.44 20.1089 204.31 0 0 280.519 2.41248 1.2458 
551 1.1668e+21 7.73927e-05 1909.03 87.4361 -4.22427 0 0 162.68 2.62068 2.3336 
552 1.3703e+21 9.08906e-05 1773.53 73.6236 125.015 0 0 199.201 3.7687 2.7406 
553 6.419e+20 4.25766e-05 1896.11 -120.36 -109.581 0 0 291.267 2.58132 1.2838 
554 1.9229e+21 0.000127544 1678.83 161.934 -128.308 0 0 193.725 5.1431 3.8458 
555 1.7843e+21 0.000118351 1781.76 195.05 -78.1225 0 0 175.279 4.31798 3.5686 
556 1.1717e+21 7.77177e-05 1788.13 -9.8981 46.7501 0 0 204.872 3.31423 2.3434 
557 1.7684e+21 0.000117296 1777.23 -75.5928 148.572 0 0 195.462 4.77229 3.5368 
558 2.1792e+21 0.000144544 1759.92 34.5373 -105.92 0 0 346.658 10.4299 4.3584 
559 2.0465e+21 0.000135742 1571.78 17.9632 109.064 0 0 336.614 9.51103 4.093 
560 1.7045e+21 0.000113058 1721.19 97.2105 -10.1064 0 0 244.45 5.75267 3.409 
561 1.6467e+21 0.000109224 1794.62 -12.2452 42.2007 0 0 275.181 6.25628 3.2934 
562 1.9133e+21 0.000126907 1764.67 25.7247 1.76286 0 0 296.412 7.83 3.8266 
563 3.0526e+21 0.000202476 1124.88 452.08 178.879 0 0 2369.23 99.8527 6.1052 
564 3.6408e+21 0.000241491 1091.71 557.133 2.37533 0 0 1871.94 94.0961 7.2816 
565 1.7403e+21 0.000115432 1488.95 225.576 221.02 0 0 2173.39 52.2209 3.4806 
566 7.273e+20 4.82411e-05 1366.81 453.824 -216.503 0 0 1132.09 11.3679 1.4546 
567 4.459e+20 2.95761e-05 517.793 -15.6464 -125.261 0 0 3027.23 18.6366 0.8918 
568 1.737e+20 1.15213e-05 1569.7 -107.673 854.655 0 0 228.196 0.547257 0.3474 
569 1.0373e+21 6.88031e-05 945.41 43.5206 131.956 0 0 887.29 12.7073 2.0746 
570 8.147e+20 5.40382e-05 1563.09 -269.028 268.346 0 0 1326.2 14.9173 1.6294 
571 1.0377e+21 6.88296e-05 1325.32 -247.919 33.0185 0 0 763.746 10.9422 2.0754 
572 2.356e+20 1.56271e-05 1492.46 -363.846 483.694 0 0 86.7342 0.28213 0.4712 
573 2.359e+20 1.5647e-05 1480.51 41.5575 -313.328 0 0 1366.33 4.45006 0.4718 
574 8.071e+20 5.35341e-05 889.137 219.843 240.984 0 0 1177.34 13.1193 1.6142 
575 1.3387e+21 8.87946e-05 1157.15 37.67 -122.187 0 0 638.278 11.7971 2.6774 
576 7.345e+20 4.87187e-05 1118.36 -88.5629 -192.208 0 0 450.427 4.56772 1.469 
577 1.1325e+21 7.51176e-05 771.239 157.979 -82.118 0 0 633.802 9.91004 2.265 
578 3.975e+20 2.63658e-05 672.598 185.806 -262.405 0 0 1097.33 6.02221 0.795 
579 1.2656e+21 8.3946e-05 736.3 -168.989 28.347 0 0 1186.2 20.727 2.5312 
580 1.2331e+21 8.17903e-05 889.879 152.46 179.582 0 0 1233.3 20.9966 2.4662 
581 5.272e+20 3.49686e-05 1226.02 109.762 152.677 0 0 1282.28 9.3334 1.0544 
582 3.805e+20 2.52382e-05 412.297 292.977 -216.533 0 0 -1.63459e-11 -8.58708e-14 0.761 
583 4.1e+20 2.71949e-05 395.14 419.648 -285.76 0 0 -3.09202e-11 -1.75029e-13 0.82 
584 1.913e+20 1.26887e-05 1588.47 -359.537 261.771 0 0 1293.84 3.41728 0.3826 
585 4.956e+20 3.28727e-05 1309.18 -230.631 419.05 0 0 879.039 6.01482 0.9912 
586 5.76e+20 3.82055e-05 1319.2 -162.937 339.271 0 0 1087.42 8.64777 1.152 
587 5.685e+20 3.7708e-05 356.253 604.321 -86.9392 0 0 1726.16 13.5486 1.137 
588 1.322e+20 8.76869e-06 904.871 -578.268 -742.932 0 0 5.89774e-11 1.07647e-13 0.2644 