ITEM: TIMESTEP
10000
ITEM: NUMBER OF SURFS
3
ITEM: BOX BOUNDS oo rr pp
0 1.5
0 0.5
-0.5 0.5
ITEM: SURFS id f_2[1] f_2[2] f_2[3] f_2[4] f_2[5] f_2[6] f_2[7] f_2[8] 
1 0.0116 0.0116 0 24.8382 -0.807849 -1.04299 248.382 141987 
2 0.0066 0.0066 0 14.9593 -12.0506 -1.41145 15.0633 18484.2 
3 0 0 0 0 0 0 0 0 
