ITEM: TIMESTEP
20000
ITEM: NUMBER OF CELLS
2500
ITEM: BOX BOUNDS oo rr pp
0 1.5
0 0.5
-0.5 0.5
ITEM: CELLS id f_1[1] f_1[2] f_1[3] f_1[4] f_1[5] f_1[6] f_1[7] f_5[1] f_5[2] f_1[8] 
1 8.424e+20 5.58755e-05 1783.73 -144.478 -53.2139 0 0 193.403 2.24939 1.6848 
2 6.972e+20 4.62446e-05 1596.77 -130.742 64.7574 0 0 101.742 0.979355 1.3944 
3 5.603e+20 3.71641e-05 1986.27 217.494 73.9982 0 0 164.365 1.27149 1.1206 
4 1.6265e+21 0.000107884 1715.53 74.9247 3.81016 0 0 286.165 6.42618 3.253 
5 1.9129e+21 0.000126881 1623.97 23.2815 139.249 0 0 281.593 7.437 3.8258 
6 1.4886e+21 9.87373e-05 1673.16 89.5135 164.075 0 0 206.268 4.23929 2.9772 
7 1.5582e+21 0.000103354 1729.15 -1.93853 -83.3024 0 0 222.612 4.7891 3.1164 
8 2.0368e+21 0.000135099 1690.82 94.9592 -4.94728 0 0 443.351 12.4675 4.0736 
9 1.7481e+21 0.00011595 1755.24 -28.2581 17.2556 0 0 211.601 5.10701 3.4962 
10 2.3976e+21 0.00015903 1701.29 -73.349 77.78 0 0 302.028 9.99787 4.7952 
11 2.607e+21 0.00017292 1571.15 199.036 -31.1352 0 0 1557.1 56.0455 5.214 
12 1.3428e+21 8.90666e-05 1021.35 44.5901 -422.914 0 0 2938.78 54.4831 2.6856 
13 4.9554e+21 0.000328687 159.341 -6.46522 175.011 0 0 2531.68 173.209 9.9108 
14 1.24839e+22 0.000828045 48.0397 -109.094 145.17 0 0 1423.55 245.361 8.3226 
15 0 0 0 0 0 0 0 0 0 0 
16 0 0 0 0 0 0 0 0 0 0 
17 0 0 0 0 0 0 0 0 0 0 
18 0 0 0 0 0 0 0 0 0 0 
19 0 0 0 0 0 0 0 0 0 0 
20 0 0 0 0 0 0 0 0 0 0 
21 0 0 0 0 0 0 0 0 0 0 
22 0 0 0 0 0 0 0 0 0 0 
23 0 0 0 0 0 0 0 0 0 0 
24 0 0 0 0 0 0 0 0 0 0 
25 0 0 0 0 0 0 0 0 0 0 
26 0 0 0 0 0 0 0 0 0 0 
27 0 0 0 0 0 0 0 0 0 0 
28 0 0 0 0 0 0 0 0 0 0 
29 0 0 0 0 0 0 0 0 0 0 
30 0 0 0 0 0 0 0 0 0 0 
31 0 0 0 0 0 0 0 0 0 0 
32 0 0 0 0 0 0 0 0 0 0 
33 0 0 0 0 0 0 0 0 0 0 
34 0 0 0 0 0 0 0 0 0 0 
35 0 0 0 0 0 0 0 0 0 0 
36 0 0 0 0 0 0 0 0 0 0 
37 0 0 0 0 0 0 0 0 0 0 
38 0 0 0 0 0 0 0 0 0 0 
39 0 0 0 0 0 0 0 0 0 0 
40 0 0 0 0 0 0 0 0 0 0 
41 0 0 0 0 0 0 0 0 0 0 
42 0 0 0 0 0 0 0 0 0 0 
43 0 0 0 0 0 0 0 0 0 0 
44 0 0 0 0 0 0 0 0 0 0 
45 1.2969e+21 8.60221e-05 1418.37 25.0743 -62.3914 0 0 289.843 5.18982 2.5938 
46 2.3455e+21 0.000155575 1551.24 65.4353 40.8495 0 0 447.544 14.4929 4.691 
47 1.0292e+21 6.82658e-05 1597.38 -122.713 -88.4724 0 0 314.172 4.46428 2.0584 
48 4.639e+20 3.077e-05 2089.35 34.3513 89.2988 0 0 109.663 0.702373 0.9278 
49 1.8079e+21 0.000119916 1708.13 11.7496 -19.8839 0 0 134.914 3.36756 3.6158 
50 1.6475e+21 0.000109277 1778.98 -48.6218 -41.4134 0 0 123.532 2.80988 3.295 
51 2.1521e+21 0.000142747 1910.71 1.95396 -12.477 0 0 213.813 6.353 4.3042 
52 2.1685e+21 0.000143834 1758.69 -50.4148 37.048 0 0 281.693 8.43372 4.337 
53 2.2026e+21 0.000146096 1813.86 -146.65 -2.43815 0 0 251.451 7.64666 4.4052 
54 1.7437e+21 0.000115658 1780.42 -137.199 -40.2871 0 0 303.461 7.30564 3.4874 
55 8.873e+20 5.88537e-05 1540.51 -11.3925 -193.278 0 0 138.584 1.69772 1.7746 
56 9.858e+20 6.53871e-05 1740.07 -55.9248 62.2987 0 0 276.55 3.76397 1.9716 
57 1.8895e+21 0.000125329 1932.58 -103.003 40.5953 0 0 241.389 6.2972 3.779 
58 1.3855e+21 9.18988e-05 1806.89 -165.39 47.3098 0 0 141.346 2.70379 2.771 
59 1.271e+21 8.43042e-05 1726.85 -126.1 38.9029 0 0 193.064 3.38789 2.542 
60 1.4327e+21 9.50296e-05 1832.13 -94.5378 -104.511 0 0 235.384 4.65602 2.8654 
61 2.1498e+21 0.000142594 1614.17 16.2048 -116.838 0 0 247.446 7.34448 4.2996 
62 2.3974e+21 0.000159017 862.116 72.9376 -133.908 0 0 2193.64 72.6087 4.7948 
63 4.2761e+21 0.000283629 231.956 -182.817 -11.4906 0 0 2224.16 131.31 8.5522 
64 1.38213e+22 0.000916753 42.3053 25.0736 32.016 0 0 1241.72 236.949 9.2142 
65 0 0 0 0 0 0 0 0 0 0 
66 0 0 0 0 0 0 0 0 0 0 
67 0 0 0 0 0 0 0 0 0 0 
68 0 0 0 0 0 0 0 0 0 0 
69 0 0 0 0 0 0 0 0 0 0 
70 0 0 0 0 0 0 0 0 0 0 
71 0 0 0 0 0 0 0 0 0 0 
72 0 0 0 0 0 0 0 0 0 0 
73 0 0 0 0 0 0 0 0 0 0 
74 0 0 0 0 0 0 0 0 0 0 
75 0 0 0 0 0 0 0 0 0 0 
76 0 0 0 0 0 0 0 0 0 0 
77 0 0 0 0 0 0 0 0 0 0 
78 0 0 0 0 0 0 0 0 0 0 
79 0 0 0 0 0 0 0 0 0 0 
80 0 0 0 0 0 0 0 0 0 0 
81 0 0 0 0 0 0 0 0 0 0 
82 0 0 0 0 0 0 0 0 0 0 
83 0 0 0 0 0 0 0 0 0 0 
84 0 0 0 0 0 0 0 0 0 0 
85 0 0 0 0 0 0 0 0 0 0 
86 0 0 0 0 0 0 0 0 0 0 
87 0 0 0 0 0 0 0 0 0 0 
88 0 0 0 0 0 0 0 0 0 0 
89 0 0 0 0 0 0 0 0 0 0 
90 0 0 0 0 0 0 0 0 0 0 
91 0 0 0 0 0 0 0 0 0 0 
92 0 0 0 0 0 0 0 0 0 0 
93 0 0 0 0 0 0 0 0 0 0 
94 2.94e+19 1.95007e-06 1454.74 -53.1525 -65.6229 0 0 -4.55492e-12 -1.84889e-15 0.0588 
95 6.853e+20 4.54553e-05 1490.48 -28.0103 -93.6598 0 0 139.141 1.31649 1.3706 
96 5.81e+20 3.85371e-05 1629.1 49.8311 135.483 0 0 170.362 1.36657 1.162 
97 7.267e+20 4.82013e-05 1859.15 72.6502 -94.9526 0 0 104.602 1.04949 1.4534 
98 1.8635e+21 0.000123604 1732.45 38.8051 -3.49735 0 0 125.668 3.23323 3.727 
99 1.412e+21 9.36565e-05 1682.95 66.3398 -103.36 0 0 121.41 2.36687 2.824 
100 1.1007e+21 7.30083e-05 1789.86 -17.2368 40.5158 0 0 100.603 1.52885 2.2014 
101 1.2708e+21 8.42909e-05 1790.71 -52.9597 50.6225 0 0 274.689 4.8195 2.5416 
102 1.6187e+21 0.000107367 1881.28 -44.3214 -65.3799 0 0 398.076 8.89642 3.2374 
103 1.2214e+21 8.10142e-05 1888.11 -39.3016 59.6598 0 0 189.602 3.1973 2.4428 
104 9.481e+20 6.28865e-05 1848.85 258.281 -244.507 0 0 187.392 2.45295 1.8962 
105 1.1571e+21 7.67493e-05 1761.4 38.5543 -156.234 0 0 141.992 2.26838 2.3142 
106 1.5415e+21 0.000102246 1799.06 -42.3609 -122.212 0 0 349.417 7.43655 3.083 
107 1.3274e+21 8.80451e-05 1989.02 4.42624 -109.694 0 0 250.559 4.59192 2.6548 
108 1.0778e+21 7.14894e-05 1758.67 -25.9062 -50.5797 0 0 229.979 3.42224 2.1556 
109 1.9317e+21 0.000128128 1749.19 -118.963 -105.802 0 0 222.768 5.94122 3.8634 
110 2.445e+21 0.000162174 1715.25 -70.6329 121.257 0 0 334.188 11.2811 4.89 
111 9.16e+20 6.07574e-05 1815.79 17.3469 -51.1651 0 0 257.113 3.25165 1.832 
112 2.2213e+21 0.000147337 1367.08 24.4705 -219.511 0 0 2252.7 69.0866 4.4426 
113 3.3882e+21 0.000224736 303.699 -44.8395 -20.6385 0 0 2629.02 122.983 6.7764 
114 1.26426e+22 0.000838571 36.5106 29.2883 121.75 0 0 1395.98 243.667 8.4284 
115 0 0 0 0 0 0 0 0 0 0 
116 0 0 0 0 0 0 0 0 0 0 
117 0 0 0 0 0 0 0 0 0 0 
118 0 0 0 0 0 0 0 0 0 0 
119 0 0 0 0 0 0 0 0 0 0 
120 0 0 0 0 0 0 0 0 0 0 
121 0 0 0 0 0 0 0 0 0 0 
122 0 0 0 0 0 0 0 0 0 0 
123 0 0 0 0 0 0 0 0 0 0 
124 0 0 0 0 0 0 0 0 0 0 
125 0 0 0 0 0 0 0 0 0 0 
126 0 0 0 0 0 0 0 0 0 0 
127 0 0 0 0 0 0 0 0 0 0 
128 0 0 0 0 0 0 0 0 0 0 
129 0 0 0 0 0 0 0 0 0 0 
130 0 0 0 0 0 0 0 0 0 0 
131 0 0 0 0 0 0 0 0 0 0 
132 0 0 0 0 0 0 0 0 0 0 
133 0 0 0 0 0 0 0 0 0 0 
134 0 0 0 0 0 0 0 0 0 0 
135 0 0 0 0 0 0 0 0 0 0 
136 0 0 0 0 0 0 0 0 0 0 
137 0 0 0 0 0 0 0 0 0 0 
138 0 0 0 0 0 0 0 0 0 0 
139 0 0 0 0 0 0 0 0 0 0 
140 0 0 0 0 0 0 0 0 0 0 
141 0 0 0 0 0 0 0 0 0 0 
142 0 0 0 0 0 0 0 0 0 0 
143 0 0 0 0 0 0 0 0 0 0 
144 0 0 0 0 0 0 0 0 0 0 
145 2.115e+20 1.40286e-05 1541.93 -177.483 -419.467 0 0 5.62815e-13 1.64346e-15 0.423 
146 2.791e+20 1.85124e-05 1684.54 -62.564 -74.1282 0 0 -7.50635e-11 -2.89249e-13 0.5582 
147 1.2957e+21 8.59425e-05 1751.15 -48.5176 72.9359 0 0 121.567 2.17473 2.5914 
148 1.6913e+21 0.000112182 1788.08 17.0572 33.4745 0 0 180.797 4.22179 3.3826 
149 1.1276e+21 7.47926e-05 1672.5 -34.0616 -55.1474 0 0 203.379 3.16624 2.2552 
150 9.635e+20 6.3908e-05 1700.73 6.8214 -63.0551 0 0 110.129 1.465 1.927 
151 5.456e+20 3.61891e-05 1816.06 -277.227 -5.73173 0 0 577.161 4.34765 1.0912 
152 4.27e+20 2.83225e-05 1794.55 -310.615 36.5489 0 0 555.605 3.2755 0.854 
153 1.5361e+21 0.000101888 1972.7 118.999 -68.3718 0 0 408.301 8.65931 3.0722 
154 7.323e+20 4.85727e-05 1889.75 -149.453 102.779 0 0 220.246 2.2268 1.4646 
155 7.711e+20 5.11463e-05 1606.18 2.63347 90.2314 0 0 158.18 1.68402 1.5422 
156 2.0447e+21 0.000135623 1743.74 -92.8376 -139.047 0 0 197.047 5.56267 4.0894 
157 1.378e+21 9.14014e-05 1583.45 -11.2806 49.2813 0 0 255.855 4.86773 2.756 
158 1.6155e+21 0.000107154 1818.19 46.2919 95.1067 0 0 272.394 6.07558 3.231 
159 1.5302e+21 0.000101497 1927.18 -148.819 16.6898 0 0 286.425 6.05121 3.0604 
160 7.763e+20 5.14912e-05 1913 -97.1318 -64.2981 0 0 164.801 1.76633 1.5526 
161 1.294e+21 8.58297e-05 1764.74 16.7644 15.2669 0 0 255.309 4.56125 2.588 
162 1.8599e+21 0.000123365 1094.27 70.9261 2.07592 0 0 2747.32 70.5477 3.7198 
163 4.8445e+21 0.000321331 344.334 329.052 215.047 0 0 2762.62 184.78 9.689 
164 1.65051e+22 0.00109477 1.69563 -33.7315 -14.5026 0 0 911.842 207.788 11.0034 
165 0 0 0 0 0 0 0 0 0 0 
166 0 0 0 0 0 0 0 0 0 0 
167 0 0 0 0 0 0 0 0 0 0 
168 0 0 0 0 0 0 0 0 0 0 
169 0 0 0 0 0 0 0 0 0 0 
170 0 0 0 0 0 0 0 0 0 0 
171 0 0 0 0 0 0 0 0 0 0 
172 0 0 0 0 0 0 0 0 0 0 
173 0 0 0 0 0 0 0 0 0 0 
174 0 0 0 0 0 0 0 0 0 0 
175 0 0 0 0 0 0 0 0 0 0 
176 0 0 0 0 0 0 0 0 0 0 
177 0 0 0 0 0 0 0 0 0 0 
178 0 0 0 0 0 0 0 0 0 0 
179 0 0 0 0 0 0 0 0 0 0 
180 0 0 0 0 0 0 0 0 0 0 
181 0 0 0 0 0 0 0 0 0 0 
182 0 0 0 0 0 0 0 0 0 0 
183 0 0 0 0 0 0 0 0 0 0 
184 0 0 0 0 0 0 0 0 0 0 
185 0 0 0 0 0 0 0 0 0 0 
186 0 0 0 0 0 0 0 0 0 0 
187 0 0 0 0 0 0 0 0 0 0 
188 0 0 0 0 0 0 0 0 0 0 
189 0 0 0 0 0 0 0 0 0 0 
190 0 0 0 0 0 0 0 0 0 0 
191 0 0 0 0 0 0 0 0 0 0 
192 0 0 0 0 0 0 0 0 0 0 
193 0 0 0 0 0 0 0 0 0 0 
194 0 0 0 0 0 0 0 0 0 0 
195 1.147e+20 7.60794e-06 1518.58 78.0835 62.8357 0 0 246.478 0.390323 0.2294 
196 1.3956e+21 9.25688e-05 1715.99 -17.5695 -195.986 0 0 162.771 3.13632 2.7912 
197 1.2119e+21 8.03841e-05 1517 89.6704 -155.67 0 0 303.789 5.08302 2.4238 
198 1.0498e+21 6.96322e-05 1839.49 52.2278 -171.377 0 0 137.902 1.99877 2.0996 
199 1.2731e+21 8.44434e-05 1755.93 79.2819 68.5024 0 0 187.622 3.29784 2.5462 
200 1.2284e+21 8.14785e-05 1785.04 236.92 93.7088 0 0 203.869 3.45759 2.4568 
201 1.5661e+21 0.000103878 1699.17 -160.805 -61.8272 0 0 188.304 4.07156 3.1322 
202 2.1513e+21 0.000142694 1848.14 -134.301 3.3579 0 0 218.056 6.47667 4.3026 
203 2.1084e+21 0.000139848 1650.76 -142.816 49.7517 0 0 449.545 13.0861 4.2168 
204 1.6018e+21 0.000106246 1710.26 151.646 120.3 0 0 384.518 8.5037 3.2036 
205 1.8409e+21 0.000122105 1848.6 -274.267 182.62 0 0 403.633 10.2589 3.6818 
206 1.4602e+21 9.68536e-05 1775.66 -146.467 72.0638 0 0 247.956 4.99886 2.9204 
207 6.464e+20 4.28751e-05 1663.27 222.094 313.968 0 0 354.523 3.16394 1.2928 
208 1.406e+21 9.32586e-05 1808.35 30.4206 -19.9713 0 0 289.477 5.6193 2.812 
209 1.7599e+21 0.000116732 1746.95 20.9326 8.84267 0 0 233.863 5.68242 3.5198 
210 9.388e+20 6.22697e-05 1610.88 52.9612 95.5017 0 0 229.083 2.96927 1.8776 
211 1.4453e+21 9.58653e-05 1685.69 -66.0003 100.887 0 0 255.221 5.09281 2.8906 
212 2.7307e+21 0.000181125 1565.39 55.1976 -60.8413 0 0 918.243 34.619 5.4614 
213 5.361e+21 0.00035559 664.775 249.542 48.07 0 0 2225.64 164.734 10.722 
214 1.27968e+22 0.000848799 49.6143 66.6128 -187.786 0 0 1406.59 248.516 8.5312 
215 0 0 0 0 0 0 0 0 0 0 
216 0 0 0 0 0 0 0 0 0 0 
217 0 0 0 0 0 0 0 0 0 0 
218 0 0 0 0 0 0 0 0 0 0 
219 0 0 0 0 0 0 0 0 0 0 
220 0 0 0 0 0 0 0 0 0 0 
221 0 0 0 0 0 0 0 0 0 0 
222 0 0 0 0 0 0 0 0 0 0 
223 0 0 0 0 0 0 0 0 0 0 
224 0 0 0 0 0 0 0 0 0 0 
225 0 0 0 0 0 0 0 0 0 0 
226 0 0 0 0 0 0 0 0 0 0 
227 0 0 0 0 0 0 0 0 0 0 
228 0 0 0 0 0 0 0 0 0 0 
229 0 0 0 0 0 0 0 0 0 0 
230 0 0 0 0 0 0 0 0 0 0 
231 0 0 0 0 0 0 0 0 0 0 
232 0 0 0 0 0 0 0 0 0 0 
233 0 0 0 0 0 0 0 0 0 0 
234 0 0 0 0 0 0 0 0 0 0 
235 0 0 0 0 0 0 0 0 0 0 
236 0 0 0 0 0 0 0 0 0 0 
237 0 0 0 0 0 0 0 0 0 0 
238 0 0 0 0 0 0 0 0 0 0 
239 0 0 0 0 0 0 0 0 0 0 
240 0 0 0 0 0 0 0 0 0 0 
241 0 0 0 0 0 0 0 0 0 0 
242 0 0 0 0 0 0 0 0 0 0 
243 0 0 0 0 0 0 0 0 0 0 
244 0 0 0 0 0 0 0 0 0 0 
245 0 0 0 0 0 0 0 0 0 0 
246 1.1495e+21 7.62452e-05 1814.38 104.026 120.497 0 0 175.403 2.78375 2.299 
247 1.2765e+21 8.4669e-05 1802.27 22.8277 28.8311 0 0 308.185 5.43144 2.553 
248 1.3243e+21 8.78395e-05 1692.33 -27.7483 196.196 0 0 122.846 2.24611 2.6486 
249 1.2557e+21 8.32893e-05 1797.58 7.879 95.4106 0 0 190.836 3.30849 2.5114 
250 1.9058e+21 0.00012641 1656.49 78.3788 -106.144 0 0 256.375 6.74585 3.8116 
251 2.4599e+21 0.000163163 1758.47 -35.182 56.1553 0 0 244.314 8.29754 4.9198 
252 2.5696e+21 0.000170439 1814.7 38.6673 105.758 0 0 233.406 8.28056 5.1392 
253 2.3315e+21 0.000154646 1673.67 86.9054 34.293 0 0 244.051 7.85597 4.663 
254 1.647e+21 0.000109244 1877.97 119.902 121.04 0 0 221.836 5.04438 3.294 
255 2.0063e+21 0.000133076 1880.24 95.6439 -73.2733 0 0 146.182 4.04924 4.0126 
256 1.2167e+21 8.07025e-05 1791.7 -104.23 106.98 0 0 218.911 3.67735 2.4334 
257 1.7936e+21 0.000118968 1727.55 -115.975 -40.6609 0 0 352.519 8.72954 3.5872 
258 8.532e+20 5.65919e-05 1583.16 -74.0499 -183.564 0 0 274.568 3.23432 1.7064 
259 1.4336e+21 9.50893e-05 1680.68 -15.7211 21.9662 0 0 218.257 4.31995 2.8672 
260 1.4043e+21 9.31458e-05 1560.67 101.434 -148.092 0 0 177.152 3.43471 2.8086 
261 1.0292e+21 6.82658e-05 1834.47 -69.1357 -258.999 0 0 261.004 3.70877 2.0584 
262 1.772e+21 0.000117535 1994.81 -58.8609 143.692 0 0 987.863 24.1682 3.544 
263 3.257e+21 0.000216034 843.733 273.343 210.593 0 0 3169.84 142.54 6.514 
264 1.92861e+22 0.00127923 163.213 -28.015 -48.6831 0 0 1451.09 386.386 12.8574 
265 0 0 0 0 0 0 0 0 0 0 
266 0 0 0 0 0 0 0 0 0 0 
267 0 0 0 0 0 0 0 0 0 0 
268 0 0 0 0 0 0 0 0 0 0 
269 0 0 0 0 0 0 0 0 0 0 
270 0 0 0 0 0 0 0 0 0 0 
271 0 0 0 0 0 0 0 0 0 0 
272 0 0 0 0 0 0 0 0 0 0 
273 0 0 0 0 0 0 0 0 0 0 
274 0 0 0 0 0 0 0 0 0 0 
275 0 0 0 0 0 0 0 0 0 0 
276 0 0 0 0 0 0 0 0 0 0 
277 0 0 0 0 0 0 0 0 0 0 
278 0 0 0 0 0 0 0 0 0 0 
279 0 0 0 0 0 0 0 0 0 0 
280 0 0 0 0 0 0 0 0 0 0 
281 0 0 0 0 0 0 0 0 0 0 
282 0 0 0 0 0 0 0 0 0 0 
283 0 0 0 0 0 0 0 0 0 0 
284 0 0 0 0 0 0 0 0 0 0 
285 0 0 0 0 0 0 0 0 0 0 
286 0 0 0 0 0 0 0 0 0 0 
287 0 0 0 0 0 0 0 0 0 0 
288 0 0 0 0 0 0 0 0 0 0 
289 0 0 0 0 0 0 0 0 0 0 
290 0 0 0 0 0 0 0 0 0 0 
291 0 0 0 0 0 0 0 0 0 0 
292 0 0 0 0 0 0 0 0 0 0 
293 1.23e+20 8.15847e-06 826.65 -688.78 164.81 0 0 3.53235e-11 5.99863e-14 0.246 
294 0 0 0 0 0 0 0 0 0 0 
295 0 0 0 0 0 0 0 0 0 0 
296 1.1205e+21 7.43216e-05 1634.77 -20.1992 -75.9716 0 0 215.134 3.32816 2.241 
297 2.7082e+21 0.000179632 1726.73 1.2775 51.245 0 0 170.609 6.37918 5.4164 
298 2.0502e+21 0.000135988 1804.94 1.44857 95.2803 0 0 186.124 5.26845 4.1004 
299 1.4455e+21 9.58786e-05 1680.92 61.6763 -3.74358 0 0 278.339 5.55488 2.891 
300 1.6747e+21 0.000111081 1801.25 123.191 208.332 0 0 150.284 3.47482 3.3494 
301 1.638e+21 0.000108647 1733.04 112.221 -42.5373 0 0 218.703 4.94598 3.276 
302 1.3741e+21 9.11427e-05 1753.58 -100.82 -48.98 0 0 295.566 5.60732 2.7482 
303 1.2935e+21 8.57966e-05 1804.95 32.8355 165.754 0 0 155.612 2.77903 2.587 
304 1.505e+21 9.98251e-05 1698.39 -75.6847 -5.38884 0 0 398.549 8.28136 3.01 
305 7.458e+20 4.94682e-05 1809.5 222.143 -149.969 0 0 129.521 1.33367 1.4916 
306 2.488e+20 1.65027e-05 1916.11 -448.758 189.485 0 0 213.236 0.732478 0.4976 
307 1.0882e+21 7.21792e-05 1898.47 118.149 -37.1708 0 0 264.581 3.97512 2.1764 
308 2.1108e+21 0.000140007 1732.65 79.1056 -56.8843 0 0 158.128 4.60828 4.2216 
309 1.4695e+21 9.74705e-05 1671.98 -14.9078 54.0661 0 0 315.027 6.39147 2.939 
310 4.018e+20 2.6651e-05 1807.76 35.4171 -307.137 0 0 380.464 2.1106 0.8036 
311 1.0128e+21 6.7178e-05 1963.96 -295.304 -245.809 0 0 233.212 3.26105 2.0256 
312 1.4455e+21 9.58786e-05 1448.47 56.1399 -114.766 0 0 1067.3 21.3003 2.891 
313 4.7679e+21 0.00031625 313.631 83.7841 88.2855 0 0 3137.12 206.51 9.5358 
314 1.39038e+22 0.000922225 10.8936 102.668 -18.9004 0 0 1740.46 334.103 9.2692 
315 0 0 0 0 0 0 0 0 0 0 
316 0 0 0 0 0 0 0 0 0 0 
317 0 0 0 0 0 0 0 0 0 0 
318 0 0 0 0 0 0 0 0 0 0 
319 0 0 0 0 0 0 0 0 0 0 
320 0 0 0 0 0 0 0 0 0 0 
321 0 0 0 0 0 0 0 0 0 0 
322 0 0 0 0 0 0 0 0 0 0 
323 0 0 0 0 0 0 0 0 0 0 
324 0 0 0 0 0 0 0 0 0 0 
325 0 0 0 0 0 0 0 0 0 0 
326 0 0 0 0 0 0 0 0 0 0 
327 0 0 0 0 0 0 0 0 0 0 
328 0 0 0 0 0 0 0 0 0 0 
329 0 0 0 0 0 0 0 0 0 0 
330 0 0 0 0 0 0 0 0 0 0 
331 0 0 0 0 0 0 0 0 0 0 
332 0 0 0 0 0 0 0 0 0 0 
333 0 0 0 0 0 0 0 0 0 0 
334 0 0 0 0 0 0 0 0 0 0 
335 0 0 0 0 0 0 0 0 0 0 
336 0 0 0 0 0 0 0 0 0 0 
337 0 0 0 0 0 0 0 0 0 0 
338 0 0 0 0 0 0 0 0 0 0 
339 0 0 0 0 0 0 0 0 0 0 
340 0 0 0 0 0 0 0 0 0 0 
341 0 0 0 0 0 0 0 0 0 0 
342 0 0 0 0 0 0 0 0 0 0 
343 2.904e+20 1.92619e-05 826.65 -688.78 164.81 0 0 1.02475e-11 4.10865e-14 0.5808 
344 0 0 0 0 0 0 0 0 0 0 
345 4.786e+20 3.17451e-05 1634.02 -162.789 92.7405 0 0 173.843 1.14872 0.9572 
346 2.5956e+21 0.000172164 1629.47 -104.386 63.5322 0 0 192.643 6.90357 5.1912 
347 1.1402e+21 7.56283e-05 1677.18 48.868 113.564 0 0 59.0764 0.929989 2.2804 
348 8.314e+20 5.51459e-05 1941.16 94.7954 -39.4345 0 0 113.96 1.30811 1.6628 
349 1.7898e+21 0.000118716 1751.54 178.539 -97.4385 0 0 139.716 3.4525 3.5796 
350 9.014e+20 5.9789e-05 1654.25 -10.7453 42.1931 0 0 179.552 2.23456 1.8028 
351 1.4568e+21 9.66281e-05 1688.61 -50.5933 -124.304 0 0 186.614 3.75342 2.9136 
352 1.0596e+21 7.02822e-05 1618.21 101.229 -187.795 0 0 343.881 5.03075 2.1192 
353 1.0671e+21 7.07797e-05 1705.02 -28.1382 43.7851 0 0 157.726 2.32376 2.1342 
354 1.3005e+21 8.62609e-05 1687.21 -10.4187 24.0277 0 0 166.039 2.98129 2.601 
355 6.267e+20 4.15684e-05 1957.76 137.235 42.5728 0 0 174.452 1.50945 1.2534 
356 7.717e+20 5.11861e-05 1913.31 75.4084 -47.2348 0 0 237.421 2.5296 1.5434 
357 4.36e+20 2.89194e-05 1854.23 161.932 -148.703 0 0 208.528 1.25526 0.872 
358 1.0669e+21 7.07664e-05 1831.14 33.4597 74.4098 0 0 274.196 4.03895 2.1338 
359 1.4916e+21 9.89363e-05 1854.79 110.688 -93.8865 0 0 105.22 2.16687 2.9832 
360 2.3119e+21 0.000153346 1785.1 -22.5073 -252.689 0 0 261.426 8.34452 4.6238 
361 2.2922e+21 0.000152039 1661.8 -83.1792 -82.6153 0 0 215.119 6.80791 4.5844 
362 9.252e+20 6.13676e-05 1195.5 201.092 272.101 0 0 1265.7 16.1677 1.8504 
363 3.9184e+21 0.000259904 267.195 29.3593 -58.6758 0 0 3451.9 186.745 7.8368 
364 8.0901e+21 0.000536608 -32.0272 -95.0708 199.809 0 0 1202.27 134.289 5.3934 
365 0 0 0 0 0 0 0 0 0 0 
366 0 0 0 0 0 0 0 0 0 0 
367 0 0 0 0 0 0 0 0 0 0 
368 0 0 0 0 0 0 0 0 0 0 
369 0 0 0 0 0 0 0 0 0 0 
370 0 0 0 0 0 0 0 0 0 0 
371 0 0 0 0 0 0 0 0 0 0 
372 0 0 0 0 0 0 0 0 0 0 
373 0 0 0 0 0 0 0 0 0 0 
374 0 0 0 0 0 0 0 0 0 0 
375 0 0 0 0 0 0 0 0 0 0 
376 0 0 0 0 0 0 0 0 0 0 
377 0 0 0 0 0 0 0 0 0 0 
378 0 0 0 0 0 0 0 0 0 0 
379 0 0 0 0 0 0 0 0 0 0 
380 0 0 0 0 0 0 0 0 0 0 
381 0 0 0 0 0 0 0 0 0 0 
382 0 0 0 0 0 0 0 0 0 0 
383 0 0 0 0 0 0 0 0 0 0 
384 0 0 0 0 0 0 0 0 0 0 
385 0 0 0 0 0 0 0 0 0 0 
386 0 0 0 0 0 0 0 0 0 0 
387 0 0 0 0 0 0 0 0 0 0 
388 0 0 0 0 0 0 0 0 0 0 
389 0 0 0 0 0 0 0 0 0 0 
390 0 0 0 0 0 0 0 0 0 0 
391 0 0 0 0 0 0 0 0 0 0 
392 0 0 0 0 0 0 0 0 0 0 
393 1.178e+20 7.81356e-06 820.199 -639.297 49.0109 0 0 70.6726 0.114942 0.2356 
394 0 0 0 0 0 0 0 0 0 0 
395 0 0 0 0 0 0 0 0 0 0 
396 1.0887e+21 7.22124e-05 1665.39 -39.8911 -76.7221 0 0 136.23 2.0477 2.1774 
397 1.4465e+21 9.59449e-05 1703.13 -40.3662 -30.6741 0 0 130.824 2.61269 2.893 
398 1.6142e+21 0.000107068 1593.06 41.7116 -107.04 0 0 76.6734 1.70878 3.2284 
399 1.0843e+21 7.19205e-05 1888.96 55.9826 -66.8708 0 0 179.18 2.68239 2.1686 
400 2.2013e+21 0.00014601 1859.4 20.5217 12.9854 0 0 287.59 8.7405 4.4026 
401 6.02e+19 3.99301e-06 1972.19 188.503 102.816 0 0 3.6265 0.00301416 0.1204 
402 1.1703e+21 7.76248e-05 1803.6 120.935 -117.121 0 0 228.625 3.69407 2.3406 
403 1.5106e+21 0.000100197 1775.74 203.088 -27.1072 0 0 291.504 6.07964 3.0212 
404 1.3361e+21 8.86222e-05 1824.33 8.97149 -15.0131 0 0 211.025 3.89275 2.6722 
405 1.5176e+21 0.000100661 1604.71 50.4852 9.40352 0 0 234.982 4.92352 3.0352 
406 2.4545e+21 0.000162805 1703.99 98.7548 -39.1309 0 0 295.646 10.0188 4.909 
407 2.1346e+21 0.000141586 1721.4 137.621 -116.293 0 0 211.904 6.24508 4.2692 
408 3.772e+20 2.50193e-05 1609.7 514.996 -46.5904 0 0 210.691 1.09724 0.7544 
409 1.5682e+21 0.000104017 1787.88 -173.598 -66.3154 0 0 116.759 2.52798 3.1364 
410 2.083e+21 0.000138163 1721.53 2.65147 -34.0977 0 0 258.001 7.41984 4.166 
411 2.165e+21 0.000143602 1735.79 125.754 -9.11142 0 0 233.92 6.99212 4.33 
412 1.8593e+21 0.000123326 1514.43 354.978 17.5436 0 0 829.038 21.2817 3.7186 
413 2.7378e+21 0.000181596 267.467 154.196 -72.3004 0 0 2476.65 93.6159 5.4756 
414 1.41114e+22 0.000935995 -29.1963 -95.8628 212.645 0 0 1134.37 221.007 9.4076 
415 0 0 0 0 0 0 0 0 0 0 
416 0 0 0 0 0 0 0 0 0 0 
417 0 0 0 0 0 0 0 0 0 0 
418 0 0 0 0 0 0 0 0 0 0 
419 0 0 0 0 0 0 0 0 0 0 
420 0 0 0 0 0 0 0 0 0 0 
421 0 0 0 0 0 0 0 0 0 0 
422 0 0 0 0 0 0 0 0 0 0 
423 0 0 0 0 0 0 0 0 0 0 
424 0 0 0 0 0 0 0 0 0 0 
425 0 0 0 0 0 0 0 0 0 0 
426 0 0 0 0 0 0 0 0 0 0 
427 0 0 0 0 0 0 0 0 0 0 
428 0 0 0 0 0 0 0 0 0 0 
429 0 0 0 0 0 0 0 0 0 0 
430 0 0 0 0 0 0 0 0 0 0 
431 0 0 0 0 0 0 0 0 0 0 
432 0 0 0 0 0 0 0 0 0 0 
433 0 0 0 0 0 0 0 0 0 0 
434 0 0 0 0 0 0 0 0 0 0 
435 0 0 0 0 0 0 0 0 0 0 
436 0 0 0 0 0 0 0 0 0 0 
437 0 0 0 0 0 0 0 0 0 0 
438 0 0 0 0 0 0 0 0 0 0 
439 0 0 0 0 0 0 0 0 0 0 
440 0 0 0 0 0 0 0 0 0 0 
441 0 0 0 0 0 0 0 0 0 0 
442 0 0 0 0 0 0 0 0 0 0 
443 5.06e+20 3.35625e-05 887.956 -608.026 -224.639 0 0 47.0488 0.328687 1.012 
444 6e+17 3.97974e-08 1447.71 416.995 130.132 0 0 1.54994e-12 1.28395e-17 0.0012 
445 2.61e+20 1.73119e-05 1516.17 63.9707 68.2858 0 0 210.829 0.759721 0.522 
446 1.1e+21 7.29619e-05 1708.23 -202.296 -18.267 0 0 206.108 3.13018 2.2 
447 1.2712e+21 8.43174e-05 1667.63 -126.5 -163.963 0 0 164.89 2.89396 2.5424 
448 2.38e+21 0.000157863 1629.71 87.3061 -53.3175 0 0 193.18 6.3478 4.76 
449 1.8807e+21 0.000124745 1603.81 -24.2406 53.1584 0 0 272.009 7.06295 3.7614 
450 1.6461e+21 0.000109184 1576.39 -10.1452 38.7843 0 0 181.285 4.12003 3.2922 
451 1.7763e+21 0.00011782 1907.28 85.301 -22.5832 0 0 170.177 4.1735 3.5526 
452 1.8946e+21 0.000125667 1807.19 27.4123 137.269 0 0 240.442 6.28942 3.7892 
453 1.4123e+21 9.36764e-05 1750.96 72.3433 66.7768 0 0 355.477 6.93142 2.8246 
454 1.2805e+21 8.49343e-05 1855.75 129.145 -25.0522 0 0 333.426 5.8947 2.561 
455 1.3222e+21 8.77002e-05 1672.33 -67.3118 -55.2163 0 0 238.812 4.3595 2.6444 
456 1.8329e+21 0.000121574 1646.6 90.6944 143.14 0 0 395.134 9.99923 3.6658 
457 1.8294e+21 0.000121342 1815.51 73.4563 130.809 0 0 288.69 7.29162 3.6588 
458 1.7893e+21 0.000118682 1862.85 -104.326 62.2319 0 0 242.357 5.98718 3.5786 
459 6e+20 3.97974e-05 1797.35 175.339 48.4294 0 0 266.692 2.20925 1.2 
460 1.4746e+21 9.78087e-05 1946.79 -35.664 -106.124 0 0 190.308 3.87449 2.9492 
461 1.4751e+21 9.78419e-05 1949.35 -154.933 95.6454 0 0 227.155 4.62623 2.9502 
462 2.0401e+21 0.000135318 1866.09 -9.71853 147.678 0 0 475.264 13.3866 4.0802 
463 3.7584e+21 0.000249291 816.53 252.387 -55.0294 0 0 2082.92 108.083 7.5168 
464 7.0338e+21 0.000466545 212.393 22.3135 -39.522 0 0 2243.7 217.891 4.6892 
465 0 0 0 0 0 0 0 0 0 0 
466 0 0 0 0 0 0 0 0 0 0 
467 0 0 0 0 0 0 0 0 0 0 
468 0 0 0 0 0 0 0 0 0 0 
469 0 0 0 0 0 0 0 0 0 0 
470 0 0 0 0 0 0 0 0 0 0 
471 0 0 0 0 0 0 0 0 0 0 
472 0 0 0 0 0 0 0 0 0 0 
473 0 0 0 0 0 0 0 0 0 0 
474 0 0 0 0 0 0 0 0 0 0 
475 0 0 0 0 0 0 0 0 0 0 
476 0 0 0 0 0 0 0 0 0 0 
477 0 0 0 0 0 0 0 0 0 0 
478 0 0 0 0 0 0 0 0 0 0 
479 0 0 0 0 0 0 0 0 0 0 
480 0 0 0 0 0 0 0 0 0 0 
481 0 0 0 0 0 0 0 0 0 0 
482 0 0 0 0 0 0 0 0 0 0 
483 0 0 0 0 0 0 0 0 0 0 
484 0 0 0 0 0 0 0 0 0 0 
485 0 0 0 0 0 0 0 0 0 0 
486 0 0 0 0 0 0 0 0 0 0 
487 0 0 0 0 0 0 0 0 0 0 
488 0 0 0 0 0 0 0 0 0 0 
489 0 0 0 0 0 0 0 0 0 0 
490 0 0 0 0 0 0 0 0 0 0 
491 0 0 0 0 0 0 0 0 0 0 
492 0 0 0 0 0 0 0 0 0 0 
493 4.705e+20 3.12078e-05 956.23 -668.688 -303.792 0 0 56.2957 0.365694 0.941 
494 5.54e+19 3.67463e-06 1789.87 -240.844 -332.794 0 0 -1.53629e-10 -1.17507e-13 0.1108 
495 5.489e+20 3.6408e-05 1548.81 161.211 -18.3226 0 0 297.339 2.25335 1.0978 
496 1.4768e+21 9.79547e-05 1479.85 6.94779 121.464 0 0 272.065 5.54724 2.9536 
497 1.5482e+21 0.000102691 1557.54 -101.034 109.095 0 0 231.743 4.95355 3.0964 
498 6.707e+20 4.44869e-05 1502.46 -242.711 175.073 0 0 123.919 1.1475 1.3414 
499 2.3966e+21 0.000158964 1683.06 -50.1723 -23.1377 0 0 313.672 10.379 4.7932 
500 2.1479e+21 0.000142468 1636.26 -170.452 -36.5986 0 0 244.635 7.25463 4.2958 
501 1.1372e+21 7.54293e-05 1807.21 43.8799 -100.219 0 0 247.158 3.88057 2.2744 
502 1.5279e+21 0.000101344 1801.17 40.1999 25.207 0 0 377.241 7.95786 3.0558 
503 7.172e+20 4.75712e-05 1722.06 134.165 -39.2548 0 0 428.326 4.24129 1.4344 
504 1.1554e+21 7.66365e-05 1916.82 47.8614 64.3949 0 0 299.298 4.77441 2.3108 
505 2.1302e+21 0.000141294 1779.95 -38.9636 89.5079 0 0 263.645 7.75394 4.2604 
506 2.349e+21 0.000155807 1821.11 -37.9283 83.769 0 0 268.761 8.71631 4.698 
507 2.0649e+21 0.000136963 1756.47 68.0351 22.9301 0 0 256.514 7.31297 4.1298 
508 1.1364e+21 7.53763e-05 1887.29 6.84814 12.5574 0 0 257.409 4.03866 2.2728 
509 1.0021e+21 6.64683e-05 1725.55 -43.6068 -138.409 0 0 93.2114 1.28963 2.0042 
510 6.889e+20 4.5694e-05 1822.88 -15.3546 -100.058 0 0 133.886 1.27343 1.3778 
511 1.5144e+21 0.000100449 1710.77 -113.532 82.3773 0 0 267.458 5.59216 3.0288 
512 2.479e+21 0.00016443 1707.9 12.4212 -48.7038 0 0 245.215 8.39279 4.958 
513 4.6348e+21 0.000307422 982.072 225.911 111.373 0 0 1590.93 101.804 9.2696 
514 3.6728e+21 0.000243613 902.878 204.977 -256.299 0 0 1835.69 93.0853 7.3456 
515 1.6403e+21 0.000108799 328.48 40.8096 91.0654 0 0 467.841 10.5951 3.2806 
516 1.361e+20 9.02738e-06 1605.07 -437.397 -346.161 0 0 208.228 0.391274 0.2722 
517 1.4132e+21 9.37361e-05 846.124 19.4911 129.206 0 0 1431.34 27.9272 2.8264 
518 7.366e+20 4.88579e-05 1061.46 75.3814 -454.763 0 0 716.206 7.28372 1.4732 
519 1.897e+21 0.000125826 559.725 126.043 -59.6269 0 0 1075.75 28.1749 3.794 
520 1.0545e+21 6.99439e-05 449.642 267.934 -235.624 0 0 536.074 7.80467 2.109 
521 3.244e+20 2.15171e-05 305.675 317.94 664.669 0 0 477.358 2.138 0.6488 
522 4.674e+20 3.10022e-05 232.671 -21.1021 251.539 0 0 415.829 2.68341 0.9348 
523 1.1724e+21 7.77641e-05 601.939 -188.591 -119.77 0 0 553.515 8.9596 2.3448 
524 1.4092e+21 9.34708e-05 224.513 173.853 -46.9865 0 0 279.344 5.43494 2.8184 
525 7.93e+19 5.25989e-06 1484.82 -696.284 616.775 0 0 1.57613e-11 1.72563e-14 0.1586 
526 5.153e+20 3.41793e-05 1106.06 -440.181 275.07 0 0 548.153 3.89983 1.0306 
527 1.5668e+21 0.000103924 879.302 86.7357 -419.111 0 0 894.857 19.3575 3.1336 
528 2.4489e+21 0.000162433 491.97 177.444 15.5484 0 0 1050.17 35.5071 4.8978 
529 1.995e+21 0.000132326 536.137 -71.6321 -274.476 0 0 735.666 20.2631 3.99 
530 1.722e+20 1.14219e-05 1484.92 46.8793 112.533 0 0 1140.94 2.71257 0.3444 
531 1.6328e+21 0.000108302 748.226 50.7334 66.2584 0 0 2221.2 50.0731 3.2656 
532 9.86e+19 6.54004e-06 1489.66 -751.521 -395.677 0 0 -9.05441e-11 -1.2326e-13 0.1972 
533 1.335e+20 8.85492e-06 1476.19 -729.644 -371.786 0 0 117.623 0.216798 0.267 
534 5.575e+20 3.69784e-05 768.74 381.299 21.3769 0 0 1123.58 8.64836 1.115 
535 7.539e+20 5.00054e-05 785.933 -125.993 -271.739 0 0 762.165 7.93316 1.5078 
536 4.428e+20 2.93705e-05 1486.66 -278.464 -240.888 0 0 141.055 0.862344 0.8856 
537 2.2838e+21 0.000151482 312.995 75.8083 15.9626 0 0 987.746 31.1449 4.5676 
538 1.1763e+21 7.80228e-05 1171.26 -27.2468 270.271 0 0 637.376 10.3513 2.3526 
539 1.733e+21 0.000114948 975.507 -49.846 154.562 0 0 1894.34 45.3252 3.466 
540 1.8454e+21 0.000122404 758.917 18.1718 232.964 0 0 965.952 24.611 3.6908 
541 1.521e+20 1.00886e-05 1886.47 -272.349 322.377 0 0 4.97742e-10 1.04524e-12 0.3042 
542 4.65e+20 3.0843e-05 1737.44 -214.896 160.801 0 0 356.546 2.28903 0.93 
543 1.1132e+21 7.38374e-05 1388.85 -297.051 -261.998 0 0 470.312 7.22841 2.2264 
544 4.797e+20 3.1818e-05 1751.24 -203.281 -167.366 0 0 130.932 0.867161 0.9594 
545 7.135e+20 4.73257e-05 1791.99 -45.9638 81.7709 0 0 323.618 3.18794 1.427 
546 1.9885e+21 0.000131895 1694.23 -113.692 20.2747 0 0 328.751 9.02559 3.977 
547 1.7388e+21 0.000115333 1578.4 -58.4378 -55.4675 0 0 277.474 6.66124 3.4776 
548 1.0312e+21 6.83985e-05 1634.42 23.563 -142.579 0 0 90.7899 1.2926 2.0624 
549 1.4723e+21 9.76562e-05 1497.46 -164.982 45.9734 0 0 371.755 7.55678 2.9446 
550 1.473e+21 9.77026e-05 1592.78 -134.065 61.0312 0 0 305.221 6.20727 2.946 
551 2.0576e+21 0.000136479 1743.74 119.417 105.223 0 0 230.79 6.55635 4.1152 
552 1.9093e+21 0.000126642 1577.24 10.1884 88.2508 0 0 166.721 4.39489 3.8186 
553 2.0192e+21 0.000133932 1784.22 -110.572 34.6488 0 0 274.871 7.66286 4.0384 
554 1.4908e+21 9.88833e-05 1755.84 88.5162 22.288 0 0 214.171 4.40821 2.9816 
555 2.0718e+21 0.00013742 1713.79 1.23095 -67.0374 0 0 299.01 8.55297 4.1436 
556 1.4607e+21 9.68868e-05 1526.96 -72.5607 -79.3502 0 0 273.268 5.51103 2.9214 
557 1.0448e+21 6.93005e-05 1263.13 0.583429 -129.239 0 0 380.996 5.49587 2.0896 
558 1.4398e+21 9.55005e-05 1565.43 -83.3993 -159.582 0 0 225.945 4.49147 2.8796 
559 1.485e+21 9.84986e-05 1808.61 8.35192 -17.2442 0 0 115.778 2.37375 2.97 
560 1.3878e+21 9.20514e-05 1834.82 19.1563 141.206 0 0 263.974 5.05792 2.7756 
561 9.778e+20 6.48565e-05 1903.62 -513.132 37.0535 0 0 89.3383 1.20607 1.9556 
562 1.0334e+21 6.85444e-05 1201.22 117.715 94.8816 0 0 1595.74 22.7674 2.0668 
563 2.8937e+21 0.000191936 1453.41 242.006 111.934 0 0 1967.64 78.611 5.7874 
564 2.9888e+21 0.000198244 1335.25 435.29 -51.8965 0 0 1825.83 75.3424 5.9776 
565 1.3929e+21 9.23897e-05 1226.75 352.731 79.2973 0 0 1190.4 22.8927 2.7858 
566 6.77e+20 4.49047e-05 1593.21 -328.123 -410.221 0 0 386.246 3.61024 1.354 
567 1.2178e+21 8.07755e-05 886.181 290.892 74.0827 0 0 1305.16 21.9444 2.4356 
568 9.98e+20 6.61963e-05 1100.45 274.053 -331.185 0 0 382.661 5.27264 1.996 
569 9.11e+20 6.04257e-05 744.193 394.889 -274.538 0 0 828.369 10.419 1.822 
570 6.702e+20 4.44537e-05 1080.49 287.568 -106.047 0 0 488.736 4.52232 1.3404 
571 1.469e+21 9.74373e-05 1119.94 60.1036 -20.3059 0 0 1227.18 24.8894 2.938 
572 4.768e+20 3.16257e-05 1589.82 10.1467 256.834 0 0 603.319 3.97161 0.9536 
573 1.8052e+21 0.000119737 888.322 341.589 -15.9288 0 0 216.234 5.3893 3.6104 
574 7.414e+20 4.91763e-05 746.478 292.833 -344.234 0 0 758.013 7.75912 1.4828 
575 3.703e+20 2.45616e-05 1389.51 -320.85 123.607 0 0 410.206 2.09719 0.7406 
576 9.066e+20 6.01339e-05 1166.66 -260.006 -146.649 0 0 55.2084 0.691042 1.8132 
577 8.272e+20 5.48673e-05 1593.49 -125.889 104.278 0 0 157.227 1.79565 1.6544 
578 1.417e+21 9.39882e-05 1321.49 232.607 -94.5075 0 0 1069.77 20.9288 2.834 
579 1.1755e+21 7.79697e-05 570.788 254.504 -145.959 0 0 807.903 13.1119 2.351 
580 8.255e+20 5.47546e-05 1102.94 417.926 13.2618 0 0 586.854 6.68852 1.651 