ITEM: TIMESTEP
25000
ITEM: NUMBER OF CELLS
2500
ITEM: BOX BOUNDS oo rr pp
0 1.5
0 0.5
-0.5 0.5
ITEM: CELLS id f_1[1] f_1[2] f_1[3] f_1[4] f_1[5] f_1[6] f_1[7] f_5[1] f_5[2] f_1[8] 
1 3.5478e+21 0.000235322 1790.35 -45.4155 96.0368 0 0 321.724 15.7589 7.0956 
2 2.1168e+21 0.000140405 1877.21 -145.48 1.96384 0 0 287.565 8.40424 4.2336 
3 1.3353e+21 8.85691e-05 1668.41 -94.0531 79.0618 0 0 170.386 3.14121 2.6706 
4 7.834e+20 5.19621e-05 1793.17 -324.135 137.932 0 0 523.497 5.66214 1.5668 
5 1.8153e+21 0.000120407 1819.85 26.3957 236.809 0 0 191.145 4.79064 3.6306 
6 1.9835e+21 0.000131564 1608.85 -33.3516 185.242 0 0 248.14 6.79534 3.967 
7 1.2991e+21 8.6168e-05 1787.73 -109.796 30.6632 0 0 80.2937 1.44015 2.5982 
8 1.4073e+21 9.33448e-05 1774.73 -12.1349 -0.0995861 0 0 198.154 3.85011 2.8146 
9 2.697e+21 0.000178889 1672.85 -65.3807 -32.925 0 0 341.45 12.7143 5.394 
10 1.8679e+21 0.000123896 1806.02 -15.9699 133.21 0 0 343.378 8.85543 3.7358 
11 2.0018e+21 0.000132777 1754.17 61.8799 32.6482 0 0 600.211 16.5885 4.0036 
12 3.2797e+21 0.000217539 1112.21 -224.099 27.7578 0 0 1578.27 71.4657 6.5594 
13 5.5235e+21 0.000366368 -14.025 46.9755 139.044 0 0 3076.09 234.583 11.047 
14 1.36521e+22 0.00090553 -4.28635 27.6734 86.342 0 0 1098.59 207.071 9.1014 
15 0 0 0 0 0 0 0 0 0 0 
16 0 0 0 0 0 0 0 0 0 0 
17 0 0 0 0 0 0 0 0 0 0 
18 0 0 0 0 0 0 0 0 0 0 
19 0 0 0 0 0 0 0 0 0 0 
20 0 0 0 0 0 0 0 0 0 0 
21 0 0 0 0 0 0 0 0 0 0 
22 0 0 0 0 0 0 0 0 0 0 
23 0 0 0 0 0 0 0 0 0 0 
24 0 0 0 0 0 0 0 0 0 0 
25 0 0 0 0 0 0 0 0 0 0 
26 0 0 0 0 0 0 0 0 0 0 
27 0 0 0 0 0 0 0 0 0 0 
28 0 0 0 0 0 0 0 0 0 0 
29 0 0 0 0 0 0 0 0 0 0 
30 0 0 0 0 0 0 0 0 0 0 
31 0 0 0 0 0 0 0 0 0 0 
32 0 0 0 0 0 0 0 0 0 0 
33 0 0 0 0 0 0 0 0 0 0 
34 0 0 0 0 0 0 0 0 0 0 
35 0 0 0 0 0 0 0 0 0 0 
36 0 0 0 0 0 0 0 0 0 0 
37 0 0 0 0 0 0 0 0 0 0 
38 0 0 0 0 0 0 0 0 0 0 
39 0 0 0 0 0 0 0 0 0 0 
40 0 0 0 0 0 0 0 0 0 0 
41 0 0 0 0 0 0 0 0 0 0 
42 0 0 0 0 0 0 0 0 0 0 
43 0 0 0 0 0 0 0 0 0 0 
44 0 0 0 0 0 0 0 0 0 0 
45 0 0 0 0 0 0 0 0 0 0 
46 7.774e+20 5.15642e-05 1393.26 7.69468 64.7803 0 0 332.712 3.57105 1.5548 
47 2.1711e+21 0.000144007 1427.66 37.7136 -90.3596 0 0 315.179 9.44756 4.3422 
48 9.381e+20 6.22232e-05 1704.18 143.459 -2.75766 0 0 299.24 3.87572 1.8762 
49 6.228e+20 4.13097e-05 2031.05 3.98255 196.166 0 0 144.581 1.2432 1.2456 
50 1.2161e+21 8.06627e-05 1721.89 -34.1348 -19.0554 0 0 132.839 2.23038 2.4322 
51 1.9296e+21 0.000127988 1724.18 49.4464 82.4474 0 0 242.729 6.46654 3.8592 
52 1.0231e+21 6.78612e-05 1700.31 -116.932 45.6414 0 0 197.91 2.79556 2.0462 
53 2.0722e+21 0.000137447 1753.49 -95.0355 -47.5111 0 0 241.67 6.91414 4.1444 
54 1.4577e+21 9.66878e-05 1766.96 -11.0842 8.96396 0 0 215.606 4.33923 2.9154 
55 1.3767e+21 9.13151e-05 1779.81 20.7132 -168.378 0 0 264.558 5.02855 2.7534 
56 1.5567e+21 0.000103254 1577.52 111.619 -178.664 0 0 430.136 9.24472 3.1134 
57 5.862e+20 3.88821e-05 1897.12 -64.6786 -103.575 0 0 217.208 1.75795 1.1724 
58 1.5565e+21 0.000103241 1952.05 102.169 29.5301 0 0 150.107 3.22576 3.113 
59 1.456e+21 9.6575e-05 1779.99 -21.1398 3.25737 0 0 190.564 3.83076 2.912 
60 1.187e+21 7.87325e-05 1807.12 53.5466 -88.1798 0 0 407.276 6.67455 2.374 
61 1.9169e+21 0.000127146 1530.28 57.5198 -210.556 0 0 617.074 16.3313 3.8338 
62 2.5681e+21 0.00017034 1296.79 174.236 -221.819 0 0 1926.05 68.2909 5.1362 
63 6.281e+21 0.000416612 122.79 252.442 193.316 0 0 2870.43 248.919 12.562 
64 1.27449e+22 0.000845356 0.872296 -52.6897 -11.8846 0 0 1159.87 204.094 8.4966 
65 0 0 0 0 0 0 0 0 0 0 
66 0 0 0 0 0 0 0 0 0 0 
67 0 0 0 0 0 0 0 0 0 0 
68 0 0 0 0 0 0 0 0 0 0 
69 0 0 0 0 0 0 0 0 0 0 
70 0 0 0 0 0 0 0 0 0 0 
71 0 0 0 0 0 0 0 0 0 0 
72 0 0 0 0 0 0 0 0 0 0 
73 0 0 0 0 0 0 0 0 0 0 
74 0 0 0 0 0 0 0 0 0 0 
75 0 0 0 0 0 0 0 0 0 0 
76 0 0 0 0 0 0 0 0 0 0 
77 0 0 0 0 0 0 0 0 0 0 
78 0 0 0 0 0 0 0 0 0 0 
79 0 0 0 0 0 0 0 0 0 0 
80 0 0 0 0 0 0 0 0 0 0 
81 0 0 0 0 0 0 0 0 0 0 
82 0 0 0 0 0 0 0 0 0 0 
83 0 0 0 0 0 0 0 0 0 0 
84 0 0 0 0 0 0 0 0 0 0 
85 0 0 0 0 0 0 0 0 0 0 
86 0 0 0 0 0 0 0 0 0 0 
87 0 0 0 0 0 0 0 0 0 0 
88 0 0 0 0 0 0 0 0 0 0 
89 0 0 0 0 0 0 0 0 0 0 
90 0 0 0 0 0 0 0 0 0 0 
91 0 0 0 0 0 0 0 0 0 0 
92 0 0 0 0 0 0 0 0 0 0 
93 0 0 0 0 0 0 0 0 0 0 
94 0 0 0 0 0 0 0 0 0 0 
95 0 0 0 0 0 0 0 0 0 0 
96 6.023e+20 3.995e-05 1438.38 -149.842 -85.0531 0 0 119.27 0.991806 1.2046 
97 1.0341e+21 6.85908e-05 1492.91 164.825 -42.6436 0 0 303.768 4.33698 2.0682 
98 6.058e+20 4.01821e-05 1663 -75.2657 192.212 0 0 150.987 1.26285 1.2116 
99 1.1515e+21 7.63778e-05 1687.58 60.3744 -8.418 0 0 167.424 2.66173 2.303 
100 1.4968e+21 9.92812e-05 1859.69 -9.25239 -26.9256 0 0 137.359 2.8386 2.9936 
101 1.5782e+21 0.00010468 1569.65 -53.0502 50.3414 0 0 324.023 7.06027 3.1564 
102 2.1456e+21 0.000142316 1693.34 100.476 13.4857 0 0 353.067 10.459 4.2912 
103 1.1025e+21 7.31277e-05 1893.44 -66.5245 -95.3123 0 0 246.087 3.74584 2.205 
104 1.8785e+21 0.000124599 1908.26 -143.437 -3.68773 0 0 208.478 5.40698 3.757 
105 1.1394e+21 7.55753e-05 1936.06 -90.404 -135.795 0 0 317.266 4.99095 2.2788 
106 1.1828e+21 7.84539e-05 1764.62 68.4573 -234.666 0 0 212.973 3.47791 2.3656 
107 1.1345e+21 7.52503e-05 1736.05 -150.894 -134.744 0 0 252.105 3.94884 2.269 
108 1.3558e+21 8.99289e-05 1804.3 -56.9095 -196.713 0 0 370.95 6.94375 2.7116 
109 1.1182e+21 7.41691e-05 1907.09 77.8719 -42.8753 0 0 229.999 3.55081 2.2364 
110 1.6655e+21 0.000110471 1605.86 -181.034 27.4185 0 0 203.634 4.68249 3.331 
111 2.3654e+21 0.000156895 1550.81 109.138 49.2238 0 0 863.564 28.2022 4.7308 
112 2.4655e+21 0.000163534 714.361 99.3329 -246.226 0 0 3276.3 111.525 4.931 
113 4.2753e+21 0.000283576 100.157 259.484 -185.296 0 0 2376.72 140.29 8.5506 
114 1.368e+22 0.000907381 -94.2741 -7.78116 137.488 0 0 853.075 161.123 9.12 
115 0 0 0 0 0 0 0 0 0 0 
116 0 0 0 0 0 0 0 0 0 0 
117 0 0 0 0 0 0 0 0 0 0 
118 0 0 0 0 0 0 0 0 0 0 
119 0 0 0 0 0 0 0 0 0 0 
120 0 0 0 0 0 0 0 0 0 0 
121 0 0 0 0 0 0 0 0 0 0 
122 0 0 0 0 0 0 0 0 0 0 
123 0 0 0 0 0 0 0 0 0 0 
124 0 0 0 0 0 0 0 0 0 0 
125 0 0 0 0 0 0 0 0 0 0 
126 0 0 0 0 0 0 0 0 0 0 
127 0 0 0 0 0 0 0 0 0 0 
128 0 0 0 0 0 0 0 0 0 0 
129 0 0 0 0 0 0 0 0 0 0 
130 0 0 0 0 0 0 0 0 0 0 
131 0 0 0 0 0 0 0 0 0 0 
132 0 0 0 0 0 0 0 0 0 0 
133 0 0 0 0 0 0 0 0 0 0 
134 0 0 0 0 0 0 0 0 0 0 
135 0 0 0 0 0 0 0 0 0 0 
136 0 0 0 0 0 0 0 0 0 0 
137 0 0 0 0 0 0 0 0 0 0 
138 0 0 0 0 0 0 0 0 0 0 
139 0 0 0 0 0 0 0 0 0 0 
140 0 0 0 0 0 0 0 0 0 0 
141 0 0 0 0 0 0 0 0 0 0 
142 0 0 0 0 0 0 0 0 0 0 
143 0 0 0 0 0 0 0 0 0 0 
144 0 0 0 0 0 0 0 0 0 0 
145 0 0 0 0 0 0 0 0 0 0 
146 0 0 0 0 0 0 0 0 0 0 
147 4.201e+20 2.78648e-05 1675.38 -67.9623 -5.46375 0 0 124.943 0.724682 0.8402 
148 1.0711e+21 7.1045e-05 1768.87 -81.5542 -34.9587 0 0 82.3337 1.21756 2.1422 
149 1.588e+21 0.00010533 1735.38 61.4789 -53.3053 0 0 143.416 3.14435 3.176 
150 1.6909e+21 0.000112156 1708.4 -20.0881 -97.0665 0 0 162.07 3.78358 3.3818 
151 1.6074e+21 0.000106617 1552.82 -328.474 -56.8144 0 0 280.21 6.21858 3.2148 
152 8.065e+20 5.34943e-05 1547.31 -339.41 60.1503 0 0 195.196 2.17349 1.613 
153 4.999e+20 3.31579e-05 2122.6 8.5751 -4.38349 0 0 346.217 2.38954 0.9998 
154 1.5152e+21 0.000100502 2074.83 -270.951 -11.9291 0 0 280.71 5.87233 3.0304 
155 1.3118e+21 8.70104e-05 1903.13 23.6285 67.2059 0 0 207.508 3.75824 2.6236 
156 1.3344e+21 8.85094e-05 1724.17 -33.6327 -83.6579 0 0 261.649 4.82045 2.6688 
157 2.9592e+21 0.000196281 1749.86 -199.359 79.5175 0 0 283.866 11.5977 5.9184 
158 1.6647e+21 0.000110418 1821.54 21.0871 62.8811 0 0 279.324 6.41989 3.3294 
159 8.544e+20 5.66715e-05 1873.68 121.916 180.37 0 0 350.317 4.13243 1.7088 
160 9.908e+20 6.57188e-05 2005.33 36.4178 17.2265 0 0 291.645 3.98955 1.9816 
161 1.2891e+21 8.55047e-05 1147.86 -96.5088 194.921 0 0 2871.64 51.1093 2.5782 
162 3.1888e+21 0.00021151 520.289 283.139 -277.406 0 0 3785.27 166.651 6.3776 
163 5.1963e+21 0.000344665 -79.1344 42.2335 -116.671 0 0 1939.24 139.126 10.3926 
164 1.47144e+22 0.000975991 0.271674 32.3896 -104.56 0 0 941.067 191.182 9.8096 
165 0 0 0 0 0 0 0 0 0 0 
166 0 0 0 0 0 0 0 0 0 0 
167 0 0 0 0 0 0 0 0 0 0 
168 0 0 0 0 0 0 0 0 0 0 
169 0 0 0 0 0 0 0 0 0 0 
170 0 0 0 0 0 0 0 0 0 0 
171 0 0 0 0 0 0 0 0 0 0 
172 0 0 0 0 0 0 0 0 0 0 
173 0 0 0 0 0 0 0 0 0 0 
174 0 0 0 0 0 0 0 0 0 0 
175 0 0 0 0 0 0 0 0 0 0 
176 0 0 0 0 0 0 0 0 0 0 
177 0 0 0 0 0 0 0 0 0 0 
178 0 0 0 0 0 0 0 0 0 0 
179 0 0 0 0 0 0 0 0 0 0 
180 0 0 0 0 0 0 0 0 0 0 
181 0 0 0 0 0 0 0 0 0 0 
182 0 0 0 0 0 0 0 0 0 0 
183 0 0 0 0 0 0 0 0 0 0 
184 0 0 0 0 0 0 0 0 0 0 
185 0 0 0 0 0 0 0 0 0 0 
186 0 0 0 0 0 0 0 0 0 0 
187 0 0 0 0 0 0 0 0 0 0 
188 0 0 0 0 0 0 0 0 0 0 
189 0 0 0 0 0 0 0 0 0 0 
190 0 0 0 0 0 0 0 0 0 0 
191 0 0 0 0 0 0 0 0 0 0 
192 0 0 0 0 0 0 0 0 0 0 
193 0 0 0 0 0 0 0 0 0 0 
194 4.23e+19 2.80572e-06 826.65 -688.78 164.81 0 0 2.67337e-11 1.56129e-14 0.0846 
195 0 0 0 0 0 0 0 0 0 0 
196 0 0 0 0 0 0 0 0 0 0 
197 5.007e+20 3.32109e-05 1455.47 -116.537 -259.806 0 0 102.92 0.711473 1.0014 
198 1.2744e+21 8.45297e-05 1621.46 -51.7499 -147.091 0 0 294.949 5.18963 2.5488 
199 1.1493e+21 7.62319e-05 1847.94 31.8048 -183.882 0 0 185.676 2.94627 2.2986 
200 1.2778e+21 8.47552e-05 1838.57 6.94897 74.8371 0 0 250.429 4.41806 2.5556 
201 1.8001e+21 0.000119399 1718.73 -142.736 -123.997 0 0 229.038 5.6923 3.6002 
202 1.2399e+21 8.22413e-05 1800.24 -210.538 80.7944 0 0 230.467 3.94528 2.4798 
203 1.6708e+21 0.000110822 1766.5 -109.569 -48.2537 0 0 208.184 4.80237 3.3416 
204 1.4622e+21 9.69863e-05 1704.52 43.6804 54.1838 0 0 283.242 5.71805 2.9244 
205 1.8845e+21 0.000124997 1766.68 50.7436 -14.7132 0 0 285.26 7.42199 3.769 
206 6.999e+20 4.64237e-05 1795.51 25.1359 229.005 0 0 474.33 4.58353 1.3998 
207 8.395e+20 5.56832e-05 1556.91 -60.1272 -119.964 0 0 334.939 3.88212 1.679 
208 1.3999e+21 9.2854e-05 1757.67 -62.4214 254.974 0 0 168.983 3.26605 2.7998 
209 1.9441e+21 0.00012895 1640.69 -93.1567 143.118 0 0 437.539 11.7441 3.8882 
210 2.0356e+21 0.000135019 1766.67 -103.664 47.3124 0 0 339.705 9.54723 4.0712 
211 1.3246e+21 8.78594e-05 1695.47 -85.57 4.803 0 0 539.856 9.87293 2.6492 
212 2.3664e+21 0.000156961 375.659 -25.5603 137.183 0 0 4061.93 132.71 4.7328 
213 6.3028e+21 0.000418058 62.036 98.9 152.682 0 0 2536.98 220.767 12.6056 
214 1.38921e+22 0.000921449 22.7168 6.05335 -3.54918 0 0 1128.98 216.539 9.2614 
215 0 0 0 0 0 0 0 0 0 0 
216 0 0 0 0 0 0 0 0 0 0 
217 0 0 0 0 0 0 0 0 0 0 
218 0 0 0 0 0 0 0 0 0 0 
219 0 0 0 0 0 0 0 0 0 0 
220 0 0 0 0 0 0 0 0 0 0 
221 0 0 0 0 0 0 0 0 0 0 
222 0 0 0 0 0 0 0 0 0 0 
223 0 0 0 0 0 0 0 0 0 0 
224 0 0 0 0 0 0 0 0 0 0 
225 0 0 0 0 0 0 0 0 0 0 
226 0 0 0 0 0 0 0 0 0 0 
227 0 0 0 0 0 0 0 0 0 0 
228 0 0 0 0 0 0 0 0 0 0 
229 0 0 0 0 0 0 0 0 0 0 
230 0 0 0 0 0 0 0 0 0 0 
231 0 0 0 0 0 0 0 0 0 0 
232 0 0 0 0 0 0 0 0 0 0 
233 0 0 0 0 0 0 0 0 0 0 
234 0 0 0 0 0 0 0 0 0 0 
235 0 0 0 0 0 0 0 0 0 0 
236 0 0 0 0 0 0 0 0 0 0 
237 0 0 0 0 0 0 0 0 0 0 
238 0 0 0 0 0 0 0 0 0 0 
239 0 0 0 0 0 0 0 0 0 0 
240 0 0 0 0 0 0 0 0 0 0 
241 0 0 0 0 0 0 0 0 0 0 
242 0 0 0 0 0 0 0 0 0 0 
243 2.34e+19 1.5521e-06 826.65 -688.78 164.81 0 0 1.4943e-11 4.82766e-15 0.0468 
244 2.67e+20 1.77098e-05 826.65 -688.78 164.81 0 0 3.52202e-11 1.29833e-13 0.534 
245 0 0 0 0 0 0 0 0 0 0 
246 0 0 0 0 0 0 0 0 0 0 
247 5.03e+20 3.33635e-05 1731.3 180.058 -83.9869 0 0 336.194 2.33476 1.006 
248 1.007e+21 6.67933e-05 1866.46 -52.4877 -1.09813 0 0 189.445 2.63388 2.014 
249 1.0631e+21 7.05144e-05 1730.43 -41.9029 147.545 0 0 73.0401 1.07206 2.1262 
250 1.6073e+21 0.000106611 1712.21 88.8891 74.8636 0 0 209.31 4.64484 3.2146 
251 1.6274e+21 0.000107944 1557.13 37.9424 217.303 0 0 192.418 4.32338 3.2548 
252 1.9128e+21 0.000126874 1715.98 -30.5586 82.8006 0 0 151.052 3.98914 3.8256 
253 2.6807e+21 0.000177808 1708.92 47.7399 98.1645 0 0 280.423 10.3787 5.3614 
254 2.6003e+21 0.000172475 1731.91 17.0285 59.648 0 0 213.656 7.67046 5.2006 
255 1.5367e+21 0.000101928 1780.46 -72.0429 10.1602 0 0 259.399 5.50353 3.0734 
256 1.6717e+21 0.000110882 1925.96 183.715 12.2494 0 0 189.507 4.37388 3.3434 
257 1.5919e+21 0.000105589 1789.39 115.346 -67.2143 0 0 113.627 2.49736 3.1838 
258 8.714e+20 5.77991e-05 1845.73 152.509 49.9655 0 0 132.159 1.59001 1.7428 
259 6.507e+20 4.31603e-05 1606.24 -91.4482 -17.025 0 0 185.345 1.66512 1.3014 
260 1.0181e+21 6.75296e-05 1682.85 -6.84274 -46.2607 0 0 131.849 1.85332 2.0362 
261 1.5422e+21 0.000102293 1559.66 10.9502 -161.921 0 0 109.069 2.32233 3.0844 
262 1.0101e+21 6.69989e-05 749.311 -37.1221 -148.88 0 0 2727.47 38.0371 2.0202 
263 5.3503e+21 0.00035488 293.597 204.823 64.8617 0 0 3112.67 229.929 10.7006 
264 2.43207e+22 0.00161317 2.4124 48.1835 83.5391 0 0 1248.66 419.278 16.2138 
265 0 0 0 0 0 0 0 0 0 0 
266 0 0 0 0 0 0 0 0 0 0 
267 0 0 0 0 0 0 0 0 0 0 
268 0 0 0 0 0 0 0 0 0 0 
269 0 0 0 0 0 0 0 0 0 0 
270 0 0 0 0 0 0 0 0 0 0 
271 0 0 0 0 0 0 0 0 0 0 
272 0 0 0 0 0 0 0 0 0 0 
273 0 0 0 0 0 0 0 0 0 0 
274 0 0 0 0 0 0 0 0 0 0 
275 0 0 0 0 0 0 0 0 0 0 
276 0 0 0 0 0 0 0 0 0 0 
277 0 0 0 0 0 0 0 0 0 0 
278 0 0 0 0 0 0 0 0 0 0 
279 0 0 0 0 0 0 0 0 0 0 
280 0 0 0 0 0 0 0 0 0 0 
281 0 0 0 0 0 0 0 0 0 0 
282 0 0 0 0 0 0 0 0 0 0 
283 0 0 0 0 0 0 0 0 0 0 
284 0 0 0 0 0 0 0 0 0 0 
285 0 0 0 0 0 0 0 0 0 0 
286 0 0 0 0 0 0 0 0 0 0 
287 0 0 0 0 0 0 0 0 0 0 
288 0 0 0 0 0 0 0 0 0 0 
289 0 0 0 0 0 0 0 0 0 0 
290 0 0 0 0 0 0 0 0 0 0 
291 0 0 0 0 0 0 0 0 0 0 
292 0 0 0 0 0 0 0 0 0 0 
293 1.673e+20 1.10968e-05 826.65 -688.78 164.81 0 0 8.71598e-11 2.01324e-13 0.3346 
294 0 0 0 0 0 0 0 0 0 0 
295 0 0 0 0 0 0 0 0 0 0 
296 1.048e+20 6.95128e-06 1598.09 -191.586 56.4605 0 0 -1.69807e-10 -2.45697e-13 0.2096 
297 8.185e+20 5.42903e-05 1595.67 -112.101 -31.9077 0 0 123.91 1.40025 1.637 
298 2.1078e+21 0.000139808 1742.41 -27.5889 128.069 0 0 212.724 6.19056 4.2156 
299 2.019e+21 0.000133918 1696.38 -19.5819 67.0849 0 0 179.236 4.99626 4.038 
300 1.4203e+21 9.42071e-05 1771.5 9.53786 69.1074 0 0 197.948 3.88164 2.8406 
301 2.654e+21 0.000176037 1749.22 74.1139 -63.6134 0 0 162.217 5.94404 5.308 
302 1.4469e+21 9.59714e-05 1926.42 70.6467 -48.507 0 0 242.009 4.83452 2.8938 
303 1.3474e+21 8.93717e-05 1603.91 163.028 117.065 0 0 183.946 3.42193 2.6948 
304 9.564e+20 6.34371e-05 1722.62 252.734 153.426 0 0 280.676 3.70619 1.9128 
305 1.4978e+21 9.93476e-05 1764.73 -15.1276 150.301 0 0 248.103 5.1306 2.9956 
306 1.0163e+21 6.74102e-05 1884.37 234.074 83.2688 0 0 358.736 5.03361 2.0326 
307 5.774e+20 3.82984e-05 1833.71 -78.8475 -192.357 0 0 218.712 1.74354 1.1548 
308 6.151e+20 4.0799e-05 1771.05 95.9223 -88.6367 0 0 175.29 1.48863 1.2302 
309 1.7823e+21 0.000118218 1750.28 135.209 -66.6796 0 0 190.247 4.68147 3.5646 
310 1.5523e+21 0.000102963 1760.09 105.292 -36.331 0 0 307.141 6.58258 3.1046 
311 1.0045e+21 6.66275e-05 1663.88 -167.605 33.3343 0 0 227.462 3.15458 2.009 
312 1.3681e+21 9.07447e-05 902.517 216.55 -80.2924 0 0 2727.64 51.5215 2.7362 
313 5.9608e+21 0.000395374 30.933 226.7 -23.1203 0 0 3336.45 274.582 11.9216 
314 8.964e+21 0.000594573 -82.078 33.1445 207.275 0 0 1437.56 177.915 5.976 
315 0 0 0 0 0 0 0 0 0 0 
316 0 0 0 0 0 0 0 0 0 0 
317 0 0 0 0 0 0 0 0 0 0 
318 0 0 0 0 0 0 0 0 0 0 
319 0 0 0 0 0 0 0 0 0 0 
320 0 0 0 0 0 0 0 0 0 0 
321 0 0 0 0 0 0 0 0 0 0 
322 0 0 0 0 0 0 0 0 0 0 
323 0 0 0 0 0 0 0 0 0 0 
324 0 0 0 0 0 0 0 0 0 0 
325 0 0 0 0 0 0 0 0 0 0 
326 0 0 0 0 0 0 0 0 0 0 
327 0 0 0 0 0 0 0 0 0 0 
328 0 0 0 0 0 0 0 0 0 0 
329 0 0 0 0 0 0 0 0 0 0 
330 0 0 0 0 0 0 0 0 0 0 
331 0 0 0 0 0 0 0 0 0 0 
332 0 0 0 0 0 0 0 0 0 0 
333 0 0 0 0 0 0 0 0 0 0 
334 0 0 0 0 0 0 0 0 0 0 
335 0 0 0 0 0 0 0 0 0 0 
336 0 0 0 0 0 0 0 0 0 0 
337 0 0 0 0 0 0 0 0 0 0 
338 0 0 0 0 0 0 0 0 0 0 
339 0 0 0 0 0 0 0 0 0 0 
340 0 0 0 0 0 0 0 0 0 0 
341 0 0 0 0 0 0 0 0 0 0 
342 0 0 0 0 0 0 0 0 0 0 
343 0 0 0 0 0 0 0 0 0 0 
344 2.566e+20 1.702e-05 910.656 -662.959 -284.03 0 0 58.2235 0.206271 0.5132 
345 0 0 0 0 0 0 0 0 0 0 
346 0 0 0 0 0 0 0 0 0 0 
347 1.6586e+21 0.000110013 1647.88 100.768 53.7349 0 0 186.938 4.28078 3.3172 
348 1.906e+21 0.000126423 1626.19 105.941 73.7932 0 0 142.354 3.74607 3.812 
349 7.905e+20 5.24331e-05 1889.66 60.2089 -133.091 0 0 146.184 1.59546 1.581 
350 1.2966e+21 8.60022e-05 1834.39 67.9109 -49.0575 0 0 138.636 2.48179 2.5932 
351 1.7544e+21 0.000116368 1645.41 131.51 -122.229 0 0 137.154 3.32215 3.5088 
352 1.744e+21 0.000115678 1687.88 61.5781 -233.672 0 0 129.437 3.11664 3.488 
353 9.782e+20 6.4883e-05 1814.92 46.3356 -63.564 0 0 264.727 3.57528 1.9564 
354 8.932e+20 5.92451e-05 1709.26 84.9492 -1.20331 0 0 291.32 3.59255 1.7864 
355 1.4261e+21 9.45918e-05 1716.22 56.995 -15.8031 0 0 110.634 2.17832 2.8522 
356 9.541e+20 6.32845e-05 1950.39 140.06 54.3188 0 0 342.766 4.51518 1.9082 
357 7.413e+20 4.91697e-05 1791.35 -72.1408 -162.808 0 0 132.686 1.35801 1.4826 
358 3.629e+20 2.40708e-05 1887.28 145.072 339.764 0 0 133.033 0.666543 0.7258 
359 8.273e+20 5.4874e-05 1863.05 191.977 70.6984 0 0 129.024 1.47373 1.6546 
360 1.405e+21 9.31922e-05 1887.98 62.7825 -142.642 0 0 269.962 5.23676 2.81 
361 1.9928e+21 0.00013218 1700.68 -16.0778 -165.021 0 0 203.601 5.60179 3.9856 
362 1.7282e+21 0.00011463 1472.62 148.787 63.3387 0 0 1439.48 34.3464 3.4564 
363 4.5753e+21 0.000303475 257.485 258.552 155.033 0 0 3629.63 229.279 9.1506 
364 1.11174e+22 0.000737406 116.119 271.66 131.662 0 0 1235.31 189.61 7.4116 
365 0 0 0 0 0 0 0 0 0 0 
366 0 0 0 0 0 0 0 0 0 0 
367 0 0 0 0 0 0 0 0 0 0 
368 0 0 0 0 0 0 0 0 0 0 
369 0 0 0 0 0 0 0 0 0 0 
370 0 0 0 0 0 0 0 0 0 0 
371 0 0 0 0 0 0 0 0 0 0 
372 0 0 0 0 0 0 0 0 0 0 
373 0 0 0 0 0 0 0 0 0 0 
374 0 0 0 0 0 0 0 0 0 0 
375 0 0 0 0 0 0 0 0 0 0 
376 0 0 0 0 0 0 0 0 0 0 
377 0 0 0 0 0 0 0 0 0 0 
378 0 0 0 0 0 0 0 0 0 0 
379 0 0 0 0 0 0 0 0 0 0 
380 0 0 0 0 0 0 0 0 0 0 
381 0 0 0 0 0 0 0 0 0 0 
382 0 0 0 0 0 0 0 0 0 0 
383 0 0 0 0 0 0 0 0 0 0 
384 0 0 0 0 0 0 0 0 0 0 
385 0 0 0 0 0 0 0 0 0 0 
386 0 0 0 0 0 0 0 0 0 0 
387 0 0 0 0 0 0 0 0 0 0 
388 0 0 0 0 0 0 0 0 0 0 
389 0 0 0 0 0 0 0 0 0 0 
390 0 0 0 0 0 0 0 0 0 0 
391 0 0 0 0 0 0 0 0 0 0 
392 0 0 0 0 0 0 0 0 0 0 
393 1.738e+20 1.1528e-05 802.293 -501.947 -272.406 0 0 9.14339e-11 2.19402e-13 0.3476 
394 4.53e+20 3.0047e-05 952.471 -655.787 -299.013 0 0 57.9636 0.362524 0.906 
395 0 0 0 0 0 0 0 0 0 0 
396 0 0 0 0 0 0 0 0 0 0 
397 8.193e+20 5.43433e-05 1682.75 -148.258 -121.866 0 0 108.364 1.22578 1.6386 
398 2.0856e+21 0.000138336 1666.05 16.3603 -116.046 0 0 140.237 4.0381 4.1712 
399 1.6313e+21 0.000108202 1700.1 16.3871 -67.167 0 0 139.13 3.13357 3.2626 
400 1.7561e+21 0.00011648 1700.38 14.678 6.75946 0 0 191.021 4.63141 3.5122 
401 1.1179e+21 7.41492e-05 1614.4 -58.8246 92.6888 0 0 365.29 5.63799 2.2358 
402 5.438e+20 3.60697e-05 1563.7 59.9443 -55.1188 0 0 240.815 1.80803 1.0876 
403 1.0552e+21 6.99904e-05 1674.4 -108.409 -96.8308 0 0 274.598 4.00052 2.1104 
404 1.3763e+21 9.12886e-05 1734.12 -54.3737 -12.8182 0 0 317.186 6.02713 2.7526 
405 1.8711e+21 0.000124108 1770.93 -76.0566 -67.2921 0 0 283.979 7.33611 3.7422 
406 1.5076e+21 9.99976e-05 1533.63 -34.1278 21.6762 0 0 181.732 3.78269 3.0152 
407 1.5742e+21 0.000104415 1773.71 77.8142 93.9023 0 0 238.269 5.17859 3.1484 
408 2.7283e+21 0.000180965 1728.75 55.6502 -123.86 0 0 251.083 9.45787 5.4566 
409 1.404e+21 9.31259e-05 1739.85 -115.552 -124.589 0 0 199.6 3.86911 2.808 
410 1.5448e+21 0.000102465 1772.82 -151.064 -113.254 0 0 119.106 2.54032 3.0896 
411 1.6518e+21 0.000109562 1761.79 35.8557 83.2751 0 0 244.697 5.58044 3.3036 
412 2.7967e+21 0.000185502 1474.87 228.966 -157.359 0 0 806.361 31.1357 5.5934 
413 4.1906e+21 0.000277958 481.815 393.462 -60.93 0 0 2291.29 132.569 8.3812 
414 1.72686e+22 0.00114541 29.0906 100.925 -6.99368 0 0 1340.22 319.535 11.5124 
415 0 0 0 0 0 0 0 0 0 0 
416 0 0 0 0 0 0 0 0 0 0 
417 0 0 0 0 0 0 0 0 0 0 
418 0 0 0 0 0 0 0 0 0 0 
419 0 0 0 0 0 0 0 0 0 0 
420 0 0 0 0 0 0 0 0 0 0 
421 0 0 0 0 0 0 0 0 0 0 
422 0 0 0 0 0 0 0 0 0 0 
423 0 0 0 0 0 0 0 0 0 0 
424 0 0 0 0 0 0 0 0 0 0 
425 0 0 0 0 0 0 0 0 0 0 
426 0 0 0 0 0 0 0 0 0 0 
427 0 0 0 0 0 0 0 0 0 0 
428 0 0 0 0 0 0 0 0 0 0 
429 0 0 0 0 0 0 0 0 0 0 
430 0 0 0 0 0 0 0 0 0 0 
431 0 0 0 0 0 0 0 0 0 0 
432 0 0 0 0 0 0 0 0 0 0 
433 0 0 0 0 0 0 0 0 0 0 
434 0 0 0 0 0 0 0 0 0 0 
435 0 0 0 0 0 0 0 0 0 0 
436 0 0 0 0 0 0 0 0 0 0 
437 0 0 0 0 0 0 0 0 0 0 
438 0 0 0 0 0 0 0 0 0 0 
439 0 0 0 0 0 0 0 0 0 0 
440 0 0 0 0 0 0 0 0 0 0 
441 0 0 0 0 0 0 0 0 0 0 
442 0 0 0 0 0 0 0 0 0 0 
443 2.17e+19 1.43934e-06 1052.26 -791.475 -311.622 0 0 7.54256e-12 2.25976e-15 0.0434 
444 3.521e+20 2.33544e-05 946.693 -644.931 -167.136 0 0 31.6093 0.153661 0.7042 
445 0 0 0 0 0 0 0 0 0 0 
446 2.32e+19 1.53883e-06 1535.49 -337.779 439.399 0 0 4.81016e-11 1.54074e-14 0.0464 
447 4.434e+20 2.94103e-05 1736.57 -46.7875 209.558 0 0 148.199 0.907243 0.8868 
448 1.2986e+21 8.61348e-05 1654.25 -129.846 -40.78 0 0 319.254 5.72393 2.5972 
449 2.0347e+21 0.00013496 1627.91 -102.397 91.71 0 0 258.539 7.26291 4.0694 
450 2.3652e+21 0.000156881 1590.79 -111.253 19.778 0 0 327.878 10.7069 4.7304 
451 1.3781e+21 9.1408e-05 1740.72 23.936 17.4057 0 0 126.5 2.40688 2.7562 
452 1.4143e+21 9.38091e-05 1977.46 59.7757 -70.2999 0 0 140.397 2.74146 2.8286 
453 1.8529e+21 0.000122901 1912.81 113.576 25.5546 0 0 191.114 4.88908 3.7058 
454 1.5318e+21 0.000101603 1852.45 128.93 263.588 0 0 408.758 8.64474 3.0636 
455 5.866e+20 3.89086e-05 1619.56 -123.645 -164.441 0 0 216.099 1.75016 1.1732 
456 1.3358e+21 8.86023e-05 1600.01 -164.044 -52.175 0 0 268.51 4.95205 2.6716 
457 1.6134e+21 0.000107015 1798.03 -52.9768 114.823 0 0 231.152 5.14899 3.2268 
458 1.7565e+21 0.000116507 1850.45 26.5161 184.524 0 0 198.127 4.80481 3.513 
459 1.7224e+21 0.000114245 1859.52 193.38 112.436 0 0 237.835 5.65578 3.4448 
460 6.545e+20 4.34123e-05 1934.75 226.716 299.878 0 0 278.348 2.51525 1.309 
461 4.971e+20 3.29721e-05 1883.48 -266.449 -100.894 0 0 109.94 0.754538 0.9942 
462 1.9752e+21 0.000131013 1754.58 158.559 71.0649 0 0 466.401 12.719 3.9504 
463 6.0115e+21 0.000398737 873.204 291.227 -112.446 0 0 3084.28 255.988 12.023 
464 1.41204e+22 0.000936592 56.325 80.3375 184.312 0 0 1851.57 360.969 9.4136 
465 0 0 0 0 0 0 0 0 0 0 
466 0 0 0 0 0 0 0 0 0 0 
467 0 0 0 0 0 0 0 0 0 0 
468 0 0 0 0 0 0 0 0 0 0 
469 0 0 0 0 0 0 0 0 0 0 
470 0 0 0 0 0 0 0 0 0 0 
471 0 0 0 0 0 0 0 0 0 0 
472 0 0 0 0 0 0 0 0 0 0 
473 0 0 0 0 0 0 0 0 0 0 
474 0 0 0 0 0 0 0 0 0 0 
475 0 0 0 0 0 0 0 0 0 0 
476 0 0 0 0 0 0 0 0 0 0 
477 0 0 0 0 0 0 0 0 0 0 
478 0 0 0 0 0 0 0 0 0 0 
479 0 0 0 0 0 0 0 0 0 0 
480 0 0 0 0 0 0 0 0 0 0 
481 0 0 0 0 0 0 0 0 0 0 
482 0 0 0 0 0 0 0 0 0 0 
483 0 0 0 0 0 0 0 0 0 0 
484 0 0 0 0 0 0 0 0 0 0 
485 0 0 0 0 0 0 0 0 0 0 
486 0 0 0 0 0 0 0 0 0 0 
487 0 0 0 0 0 0 0 0 0 0 
488 0 0 0 0 0 0 0 0 0 0 
489 0 0 0 0 0 0 0 0 0 0 
490 0 0 0 0 0 0 0 0 0 0 
491 0 0 0 0 0 0 0 0 0 0 
492 0 0 0 0 0 0 0 0 0 0 
493 2.61e+20 1.73119e-05 1154.2 -516.841 -89.5027 0 0 370.349 1.33455 0.522 
494 2.573e+20 1.70665e-05 1835.09 -312.345 -22.3091 0 0 281.317 0.999353 0.5146 
495 4.958e+20 3.28859e-05 1776.03 -425.425 -94.5896 0 0 81.3876 0.557119 0.9916 
496 7.259e+20 4.81482e-05 1395.18 -268.83 -30.6342 0 0 325.557 3.26278 1.4518 
497 1.0182e+21 6.75362e-05 1552.64 -215.876 177.066 0 0 137.969 1.93953 2.0364 
498 1.9769e+21 0.000131126 1521.99 -232.184 72.3139 0 0 248.346 6.77837 3.9538 
499 6.351e+20 4.21255e-05 1531.28 -67.9171 60.9892 0 0 183.464 1.6087 1.2702 
500 1.9588e+21 0.000129925 1487.04 -132.901 -109.776 0 0 262.022 7.08615 3.9176 
501 2.6398e+21 0.000175095 1779.98 -67.4845 33.0994 0 0 234.595 8.55014 5.2796 
502 1.3684e+21 9.07646e-05 1735.81 -152.721 158.071 0 0 159.642 3.01608 2.7368 
503 1.7146e+21 0.000113728 1750.69 255.731 -139.563 0 0 334.246 7.91246 3.4292 
504 1.5867e+21 0.000105244 1833.37 -143.85 16.232 0 0 345.991 7.57955 3.1734 
505 1.389e+21 9.2131e-05 1804.2 79.4809 185.248 0 0 269.27 5.16385 2.778 
506 1.8219e+21 0.000120845 1789.28 -86.4923 54.8008 0 0 324.87 8.17178 3.6438 
507 2.8285e+21 0.000187612 1718.19 42.4077 -29.7387 0 0 279.659 10.9212 5.657 
508 2.0129e+21 0.000133514 1730.75 85.1552 -10.8218 0 0 208.086 5.78293 4.0258 
509 1.4952e+21 9.91751e-05 1802.33 28.9835 -29.144 0 0 256.131 5.28743 2.9904 
510 8.915e+20 5.91323e-05 1784.6 -39.621 -176.614 0 0 325.341 4.00445 1.783 
511 1.4057e+21 9.32387e-05 1669.09 170.863 -87.1118 0 0 145.827 2.83017 2.8114 
512 1.8832e+21 0.000124911 1517.12 -112.635 -3.50616 0 0 714.139 18.5679 3.7664 
513 3.9013e+21 0.000258769 1254.7 193.394 220.489 0 0 1466.5 78.9903 7.8026 
514 3.62e+21 0.000240111 970.725 144.838 -154.71 0 0 1522.43 76.0902 7.24 
515 3.5209e+21 0.000233538 857.91 -32.5876 70.3502 0 0 1277.83 62.1169 7.0418 
516 3.781e+20 2.5079e-05 1670.97 -103.228 335.535 0 0 218.65 1.1414 0.7562 
517 1.2942e+21 8.5843e-05 432.36 -60.2279 -7.70407 0 0 1131.36 20.2156 2.5884 
518 8.25e+20 5.47214e-05 915.671 -98.6063 -334.012 0 0 480.468 5.47269 1.65 
519 9.067e+20 6.01405e-05 182.388 290.434 -235.226 0 0 258.425 3.23506 1.8134 
520 2.043e+20 1.3551e-05 524.714 -367.384 -369.007 0 0 30.3219 0.085528 0.4086 
521 7.864e+20 5.21611e-05 221.616 -255.95 -191.843 0 0 192.167 2.08644 1.5728 
522 5.237e+20 3.47365e-05 55.9261 -29.1153 124.68 0 0 819.834 5.92777 1.0474 
523 1.1499e+21 7.62717e-05 599.532 -84.6752 -198.96 0 0 991.098 15.7347 2.2998 
524 1.4372e+21 9.5328e-05 245.98 201.371 -57.5246 0 0 191.903 3.80787 2.8744 
525 0 0 0 0 0 0 0 0 0 0 
526 5.357e+20 3.55324e-05 468.228 241.418 73.3615 0 0 144.258 1.06695 1.0714 
527 1.0812e+21 7.17149e-05 790.629 -252.594 -189.44 0 0 763.347 11.3949 2.1624 
528 1.6107e+21 0.000106836 472.248 148.35 -96.3065 0 0 1067.28 23.7344 3.2214 
529 1.6291e+21 0.000108057 617.396 -89.5402 -138.009 0 0 807.369 18.1595 3.2582 
530 9.121e+20 6.04987e-05 1170.25 -29.5497 3.06758 0 0 534.593 6.73208 1.8242 
531 6.269e+20 4.15817e-05 60.0998 146.423 511.339 0 0 244.688 2.11785 1.2538 
532 1.052e+20 6.97781e-06 412.297 292.977 -216.533 0 0 -3.04095e-12 -4.4168e-15 0.2104 
533 5e+20 3.31645e-05 474.602 334.621 -293.74 0 0 278.359 1.92158 1 
534 8.63e+19 5.72419e-06 853.777 -1290.94 -911.255 0 0 -2.65519e-10 -3.16366e-13 0.1726 
535 6.586e+20 4.36843e-05 213.086 13.8782 86.5977 0 0 1170.67 10.6449 1.3172 
536 1.898e+20 1.25892e-05 1539.53 122.3 16.6999 0 0 1431.25 3.75054 0.3796 
537 2.3338e+21 0.000154799 625.2 -235.069 120.181 0 0 1460.51 47.0601 4.6676 
538 9.645e+20 6.39743e-05 812.958 -31.8965 72.3655 0 0 538.279 7.16792 1.929 
539 1.3051e+21 8.6566e-05 890.425 45.7694 93.5467 0 0 1490.03 26.8487 2.6102 
540 1.7632e+21 0.000116951 612.959 233.216 155.291 0 0 958.838 23.3416 3.5264 
541 6.64e+20 4.40425e-05 1012.28 -371.627 288.27 0 0 706.698 6.47866 1.328 
542 0 0 0 0 0 0 0 0 0 0 
543 5.187e+20 3.44049e-05 1704.13 -272.925 133.985 0 0 111.14 0.795918 1.0374 
544 7.726e+20 5.12458e-05 1700.79 -185.184 -185.397 0 0 328.877 3.5081 1.5452 
545 2.842e+20 1.88507e-05 1656.23 -229.161 -139.629 0 0 129.778 0.509224 0.5684 
546 1.0845e+21 7.19338e-05 1873.71 -315.457 -284.382 0 0 325.751 4.87752 2.169 
547 2.4373e+21 0.000161664 1757.55 -83.8814 15.9232 0 0 212.848 7.16246 4.8746 
548 1.7959e+21 0.00011912 1634.21 -122.167 -92.7135 0 0 300.677 7.45531 3.5918 
549 9.635e+20 6.3908e-05 1739.78 58.0961 -111.807 0 0 164.587 2.18943 1.927 
550 1.1106e+21 7.3665e-05 1335.34 35.7837 13.5476 0 0 153.581 2.35493 2.2212 
551 8.399e+20 5.57097e-05 1696.47 149.935 221.197 0 0 131.056 1.51974 1.6798 
552 1.3781e+21 9.1408e-05 1808.67 122.015 8.91087 0 0 190.813 3.63054 2.7562 
553 2.0018e+21 0.000132777 1697.2 -50.6849 50.1607 0 0 236.806 6.54479 4.0036 
554 1.7563e+21 0.000116494 1613.39 149.963 -90.0029 0 0 145.806 3.53554 3.5126 
555 1.4683e+21 9.73909e-05 1911.39 -152.146 85.3159 0 0 104.707 2.12263 2.9366 
556 2.0281e+21 0.000134522 1617.31 -88.3983 41.634 0 0 317.887 8.90114 4.0562 
557 2.2444e+21 0.000148869 1645.05 113.227 51.5598 0 0 392.038 12.1482 4.4888 
558 1.2278e+21 8.14387e-05 1558.03 111.361 -14.3491 0 0 443.6 7.51972 2.4556 
559 1.8905e+21 0.000125395 1536.99 -97.0705 -154.6 0 0 185.043 4.82983 3.781 
560 1.1935e+21 7.91637e-05 1853.96 -23.49 32.5676 0 0 115.117 1.8969 2.387 
561 1.4909e+21 9.88899e-05 1958.02 -161.044 40.1839 0 0 157.456 3.24109 2.9818 
562 1.1743e+21 7.78901e-05 1914.6 -234.387 -42.4319 0 0 321.13 5.20646 2.3486 
563 1.5364e+21 0.000101908 1000.64 201.81 -712.53 0 0 3432.56 72.8125 3.0728 
564 2.0229e+21 0.000134177 1233.16 409.405 69.4675 0 0 1495.45 41.7668 4.0458 
565 1.5315e+21 0.000101583 1231.48 -90.9988 332.249 0 0 1324.46 28.0051 3.063 
566 1.1686e+21 7.75121e-05 1344.01 331.312 -189.402 0 0 734.407 11.8491 2.3372 
567 2.92e+20 1.93681e-05 1297.74 -122.206 104.061 0 0 1276.63 5.14673 0.584 
568 7.541e+20 5.00187e-05 1325.61 119.521 413.259 0 0 1318.25 13.7249 1.5082 
569 1.1895e+21 7.88983e-05 950.779 387.857 -273.953 0 0 1016.05 16.6865 2.379 
570 7.217e+20 4.78696e-05 597.32 259.575 -182.529 0 0 210.354 2.09599 1.4434 
571 9.035e+20 5.99283e-05 465.833 114.154 275.011 0 0 690.316 8.61111 1.807 
572 7.655e+20 5.07748e-05 1844.87 -214.996 159.523 0 0 590.462 6.24052 1.531 
573 6.974e+20 4.62578e-05 1639.78 -31.0314 35.7679 0 0 1024.9 9.86841 1.3948 
574 7.826e+20 5.19091e-05 741.575 63.689 -74.0193 0 0 342.253 3.69803 1.5652 
575 2.991e+20 1.9839e-05 1073.35 -19.5851 209.838 0 0 1.81478e-10 7.49418e-13 0.5982 
576 7.893e+20 5.23535e-05 1334.24 -366.863 -213.646 0 0 174.383 1.90033 1.5786 
577 7.22e+20 4.78895e-05 720.581 43.7415 91.5416 0 0 607.179 6.05253 1.444 
578 1.7699e+21 0.000117396 1056.59 179.514 -276.21 0 0 2142.41 52.3521 3.5398 
579 1.9384e+21 0.000128572 871.034 8.58034 86.6822 0 0 669.738 17.9239 3.8768 
580 4.478e+20 2.97021e-05 850.286 140.072 609.519 0 0 326.5 2.0186 0.8956 
581 5.442e+20 3.60962e-05 223.169 -159.815 101.306 0 0 667.693 5.0167 1.0884 
582 4.505e+20 2.98812e-05 807.009 466.034 -410.346 0 0 728.718 4.5325 0.901 
583 1.614e+20 1.07055e-05 2542.07 384.746 167.197 0 0 1.18888e-09 2.64926e-12 0.3228 
584 7.437e+20 4.93289e-05 790.249 -161.675 -333.917 0 0 2672.85 27.4445 1.4874 
585 7.75e+20 5.1405e-05 1224.51 -187.655 203.201 0 0 1209.22 12.9387 1.55 
586 6.009e+20 3.98571e-05 1408.38 105.33 -46.3579 0 0 1024.74 8.50156 1.2018 
587 6.564e+20 4.35384e-05 910.549 -73.9722 -311.795 0 0 1506.72 13.6548 1.3128 