ITEM: TIMESTEP
25000
ITEM: NUMBER OF SURFS
3
ITEM: BOX BOUNDS oo rr pp
0 1.5
0 0.5
-0.5 0.5
ITEM: SURFS id f_2[1] f_2[2] f_2[3] f_2[4] f_2[5] f_2[6] f_2[7] f_2[8] 
1 0.0226 0.0226 0 38.3598 -1.79317 1.12961 383.598 167093 
2 0.004 0.004 0 5.38275 -7.01598 -0.478491 8.76998 6046.5 
3 0 0 0 0 0 0 0 0 
