ITEM: TIMESTEP
20000
ITEM: NUMBER OF SURFS
3
ITEM: BOX BOUNDS oo rr pp
0 1.5
0 0.5
-0.5 0.5
ITEM: SURFS id f_2[1] f_2[2] f_2[3] f_2[4] f_2[5] f_2[6] f_2[7] f_2[8] 
1 0.0196 0.0196 0 36.6529 0.66341 -0.0311971 366.529 172900 
2 0.006 0.006 0 8.27955 -10.565 -0.778879 13.2063 8506.44 
3 0 0 0 0 0 0 0 0 
