ITEM: TIMESTEP
5000
ITEM: NUMBER OF SURFS
3
ITEM: BOX BOUNDS oo rr pp
0 1.5
0 0.5
-0.5 0.5
ITEM: SURFS id f_2[1] f_2[2] f_2[3] f_2[4] f_2[5] f_2[6] f_2[7] f_2[8] 
1 0.0158 0.0158 0 41.0829 1.1184 -0.627144 410.829 273805 
2 0.0068 0.0068 0 19.4491 -10.6941 0.473276 13.3677 22001.4 
3 0 0 0 0 0 0 0 0 
