ITEM: TIMESTEP
15000
ITEM: NUMBER OF CELLS
2500
ITEM: BOX BOUNDS oo rr pp
0 1.5
0 0.5
-0.5 0.5
ITEM: CELLS id f_1[1] f_1[2] f_1[3] f_1[4] f_1[5] f_1[6] f_1[7] f_5[1] f_5[2] f_1[8] 
1 4.923e+20 3.26538e-05 1592.03 34.8629 -27.2763 0 0 17.6411 0.119906 0.9846 
2 9.462e+20 6.27605e-05 1951.12 -167.531 66.7076 0 0 343.242 4.48401 1.8924 
3 1.6514e+21 0.000109536 1762.99 -82.0237 104.483 0 0 317.275 7.23389 3.3028 
4 1.9737e+21 0.000130914 1599.47 68.3074 -9.3488 0 0 253.375 6.90442 3.9474 
5 1.698e+21 0.000112627 1732.27 13.1238 95.4345 0 0 164.189 3.84915 3.396 
6 1.8539e+21 0.000122967 1632.53 15.7049 -86.3396 0 0 397.746 10.1806 3.7078 
7 1.2645e+21 8.3873e-05 1813 -134.012 -90.4134 0 0 248.637 4.34079 2.529 
8 1.8395e+21 0.000122012 1723.07 -62.3228 71.5012 0 0 214.229 5.44078 3.679 
9 2.4571e+21 0.000162977 1703.76 -104.575 91.5832 0 0 241.412 8.18963 4.9142 
10 2.4581e+21 0.000163043 1681.65 -72.8208 126.289 0 0 290.933 9.8736 4.9162 
11 1.3074e+21 8.67185e-05 1896.81 77.8765 -55.4989 0 0 274.619 4.95704 2.6148 
12 1.0749e+21 7.1297e-05 1246.55 156.896 -95.0428 0 0 3307.59 49.0867 2.1498 
13 3.4203e+21 0.000226865 618.437 104.34 -87.9171 0 0 2200.84 103.929 6.8406 
14 1.00629e+22 0.000667462 7.22337 70.9933 397.68 0 0 1492.14 207.308 6.7086 
15 0 0 0 0 0 0 0 0 0 0 
16 0 0 0 0 0 0 0 0 0 0 
17 0 0 0 0 0 0 0 0 0 0 
18 0 0 0 0 0 0 0 0 0 0 
19 0 0 0 0 0 0 0 0 0 0 
20 0 0 0 0 0 0 0 0 0 0 
21 0 0 0 0 0 0 0 0 0 0 
22 0 0 0 0 0 0 0 0 0 0 
23 0 0 0 0 0 0 0 0 0 0 
24 0 0 0 0 0 0 0 0 0 0 
25 0 0 0 0 0 0 0 0 0 0 
26 0 0 0 0 0 0 0 0 0 0 
27 0 0 0 0 0 0 0 0 0 0 
28 0 0 0 0 0 0 0 0 0 0 
29 0 0 0 0 0 0 0 0 0 0 
30 0 0 0 0 0 0 0 0 0 0 
31 0 0 0 0 0 0 0 0 0 0 
32 0 0 0 0 0 0 0 0 0 0 
33 0 0 0 0 0 0 0 0 0 0 
34 0 0 0 0 0 0 0 0 0 0 
35 0 0 0 0 0 0 0 0 0 0 
36 0 0 0 0 0 0 0 0 0 0 
37 0 0 0 0 0 0 0 0 0 0 
38 0 0 0 0 0 0 0 0 0 0 
39 0 0 0 0 0 0 0 0 0 0 
40 0 0 0 0 0 0 0 0 0 0 
41 0 0 0 0 0 0 0 0 0 0 
42 0 0 0 0 0 0 0 0 0 0 
43 1.53e+19 1.01483e-06 1646.75 -153.959 183.79 0 0 9.72511e-13 2.05433e-16 0.0306 
44 1.5579e+21 0.000103334 1492.87 -51.6429 85.9054 0 0 162.029 3.48511 3.1158 
45 2.0448e+21 0.00013563 1618.89 -199.449 -56.2775 0 0 477.204 13.4722 4.0896 
46 8.142e+20 5.40051e-05 1752.21 94.1231 43.173 0 0 181.693 2.04246 1.6284 
47 7.893e+20 5.23535e-05 1838.36 52.7642 -40.2786 0 0 204.038 2.22349 1.5786 
48 1.7239e+21 0.000114345 1795.96 12.5991 38.1222 0 0 198.008 4.71278 3.4478 
49 1.4452e+21 9.58587e-05 1687.83 -107.636 -52.3941 0 0 174.751 3.48684 2.8904 
50 1.6492e+21 0.00010939 1789.96 -23.885 -55.3637 0 0 491.572 11.1929 3.2984 
51 1.8221e+21 0.000120858 1625.79 -71.0663 -54.1259 0 0 202.814 5.10215 3.6442 
52 1.7114e+21 0.000113515 1810.1 -92.5279 -144.25 0 0 281.903 6.66093 3.4228 
53 1.3978e+21 9.27147e-05 1626.17 -29.2919 -229.91 0 0 251.993 4.86313 2.7956 
54 6.596e+20 4.37506e-05 1771.63 2.02436 -6.39576 0 0 257.962 2.3492 1.3192 
55 1.0558e+21 7.00302e-05 1927.47 155.466 111.507 0 0 200.015 2.91559 2.1116 
56 1.5227e+21 0.000100999 1861.59 8.96306 78.037 0 0 225.144 4.73324 3.0454 
57 1.5473e+21 0.000102631 1781.55 -32.8149 47.9091 0 0 234.822 5.01646 3.0946 
58 1.6266e+21 0.000107891 1846.02 -100.202 -53.1533 0 0 247.321 5.55424 3.2532 
59 1.8316e+21 0.000121488 1777.13 -3.54928 -98.5669 0 0 384.45 9.72195 3.6632 
60 1.6443e+21 0.000109065 1627.67 1.44983 -69.2051 0 0 248.28 5.63647 3.2886 
61 1.3805e+21 9.15672e-05 1727.78 96.2377 -12.0063 0 0 329.032 6.2713 2.761 
62 2.1824e+21 0.000144756 1199.39 88.7886 -15.6488 0 0 1642.65 49.495 4.3648 
63 3.0913e+21 0.000205043 528.92 -138.18 -97.6237 0 0 2633.83 112.412 6.1826 
64 1.44234e+22 0.00095669 78.9379 69.8826 -71.5192 0 0 1446.04 287.959 9.6156 
65 0 0 0 0 0 0 0 0 0 0 
66 0 0 0 0 0 0 0 0 0 0 
67 0 0 0 0 0 0 0 0 0 0 
68 0 0 0 0 0 0 0 0 0 0 
69 0 0 0 0 0 0 0 0 0 0 
70 0 0 0 0 0 0 0 0 0 0 
71 0 0 0 0 0 0 0 0 0 0 
72 0 0 0 0 0 0 0 0 0 0 
73 0 0 0 0 0 0 0 0 0 0 
74 0 0 0 0 0 0 0 0 0 0 
75 0 0 0 0 0 0 0 0 0 0 
76 0 0 0 0 0 0 0 0 0 0 
77 0 0 0 0 0 0 0 0 0 0 
78 0 0 0 0 0 0 0 0 0 0 
79 0 0 0 0 0 0 0 0 0 0 
80 0 0 0 0 0 0 0 0 0 0 
81 0 0 0 0 0 0 0 0 0 0 
82 0 0 0 0 0 0 0 0 0 0 
83 0 0 0 0 0 0 0 0 0 0 
84 0 0 0 0 0 0 0 0 0 0 
85 0 0 0 0 0 0 0 0 0 0 
86 0 0 0 0 0 0 0 0 0 0 
87 0 0 0 0 0 0 0 0 0 0 
88 0 0 0 0 0 0 0 0 0 0 
89 0 0 0 0 0 0 0 0 0 0 
90 0 0 0 0 0 0 0 0 0 0 
91 0 0 0 0 0 0 0 0 0 0 
92 0 0 0 0 0 0 0 0 0 0 
93 8.7e+18 5.77062e-07 1379.57 -256.632 -71.399 0 0 4.2757e-12 5.13581e-16 0.0174 
94 1.057e+21 7.01098e-05 1475.01 -194.078 -12.0911 0 0 259.298 3.78405 2.114 
95 6.988e+20 4.63507e-05 1589.94 -84.6758 174.31 0 0 317.836 3.06647 1.3976 
96 1.736e+21 0.000115147 1791.77 152.286 -72.3282 0 0 152.701 3.65996 3.472 
97 2.1907e+21 0.000145307 1836.29 -4.7068 -7.26461 0 0 118.24 3.57628 4.3814 
98 1.3832e+21 9.17463e-05 1683.15 10.085 -52.3746 0 0 99.6096 1.90226 2.7664 
99 1.6736e+21 0.000111008 1801.16 -90.7011 -39.6447 0 0 134.233 3.10166 3.3472 
100 2.2141e+21 0.000146859 1644.49 -12.0088 27.6489 0 0 224.74 6.87006 4.4282 
101 2.0367e+21 0.000135092 1906.77 -28.9013 119.983 0 0 275.13 7.73655 4.0734 
102 1.44e+21 9.55138e-05 1944.82 75.4978 137.5 0 0 380.83 7.57141 2.88 
103 1.1445e+21 7.59135e-05 1799.44 -30.1237 -55.2984 0 0 200.983 3.17583 2.289 
104 1.0082e+21 6.68729e-05 1786.33 22.9578 -115.188 0 0 131.771 1.83422 2.0164 
105 1.7049e+21 0.000113084 1731.97 -157.042 -27.2872 0 0 263.288 6.19746 3.4098 
106 1.3868e+21 9.19851e-05 1740.38 -122.58 -129.642 0 0 426.439 8.16496 2.7736 
107 1.416e+21 9.39219e-05 1831.42 25.7227 51.281 0 0 344.488 6.73473 2.832 
108 1.7359e+21 0.000115141 1649.18 -53.9565 -99.2164 0 0 261.586 6.26935 3.4718 
109 1.5937e+21 0.000105709 1730.23 -22.4177 167.233 0 0 334.789 7.36649 3.1874 
110 6.509e+20 4.31735e-05 1799.78 45.2154 55.6547 0 0 242.563 2.17983 1.3018 
111 2.1524e+21 0.000142767 1724.64 44.5152 31.9788 0 0 295.352 8.777 4.3048 
112 2.153e+21 0.000142806 1844.78 -61.8071 -11.2216 0 0 509.854 15.1556 4.306 
113 4.1241e+21 0.000273547 524.811 109.386 5.48684 0 0 2665.47 151.77 8.2482 
114 1.21611e+22 0.000806634 24.8824 28.5868 7.25757 0 0 1133.14 190.256 8.1074 
115 0 0 0 0 0 0 0 0 0 0 
116 0 0 0 0 0 0 0 0 0 0 
117 0 0 0 0 0 0 0 0 0 0 
118 0 0 0 0 0 0 0 0 0 0 
119 0 0 0 0 0 0 0 0 0 0 
120 0 0 0 0 0 0 0 0 0 0 
121 0 0 0 0 0 0 0 0 0 0 
122 0 0 0 0 0 0 0 0 0 0 
123 0 0 0 0 0 0 0 0 0 0 
124 0 0 0 0 0 0 0 0 0 0 
125 0 0 0 0 0 0 0 0 0 0 
126 0 0 0 0 0 0 0 0 0 0 
127 0 0 0 0 0 0 0 0 0 0 
128 0 0 0 0 0 0 0 0 0 0 
129 0 0 0 0 0 0 0 0 0 0 
130 0 0 0 0 0 0 0 0 0 0 
131 0 0 0 0 0 0 0 0 0 0 
132 0 0 0 0 0 0 0 0 0 0 
133 0 0 0 0 0 0 0 0 0 0 
134 0 0 0 0 0 0 0 0 0 0 
135 0 0 0 0 0 0 0 0 0 0 
136 0 0 0 0 0 0 0 0 0 0 
137 0 0 0 0 0 0 0 0 0 0 
138 0 0 0 0 0 0 0 0 0 0 
139 0 0 0 0 0 0 0 0 0 0 
140 0 0 0 0 0 0 0 0 0 0 
141 0 0 0 0 0 0 0 0 0 0 
142 0 0 0 0 0 0 0 0 0 0 
143 1.768e+20 1.1727e-05 1501.94 -210.858 -192.66 0 0 80.0595 0.195424 0.3536 
144 7.213e+20 4.78431e-05 1632.13 11.9451 -361.778 0 0 155.556 1.54912 1.4426 
145 1.098e+21 7.28292e-05 1803.55 153.043 -181.346 0 0 148.924 2.25761 2.196 
146 7.452e+20 4.94284e-05 1844.48 49.4022 91.4735 0 0 42.0479 0.432614 1.4904 
147 1.0808e+21 7.16884e-05 1684.88 43.1109 76.7987 0 0 101.365 1.51258 2.1616 
148 1.5155e+21 0.000100522 1677.26 80.4818 -137.028 0 0 259.404 5.4277 3.031 
149 1.3779e+21 9.13947e-05 1756.04 -13.4785 58.0355 0 0 205.584 3.91102 2.7558 
150 1.503e+21 9.96925e-05 1604.29 247.61 31.561 0 0 181.444 3.76516 3.006 
151 7.62e+20 5.05427e-05 1678.59 71.3535 -48.9126 0 0 159.216 1.67504 1.524 
152 7.568e+20 5.01978e-05 1665.73 359.278 63.4846 0 0 160.632 1.6784 1.5136 
153 2.643e+20 1.75308e-05 1734.42 492.387 40.954 0 0 225.833 0.824075 0.5286 
154 6.478e+20 4.29679e-05 1882.82 -65.143 79.0526 0 0 120.747 1.07994 1.2956 
155 1.7018e+21 0.000112879 1524.63 60.0345 -72.837 0 0 238.143 5.59537 3.4036 
156 1.4576e+21 9.66812e-05 1736.04 -24.882 74.5327 0 0 379.945 7.64615 2.9152 
157 1.6782e+21 0.000111313 1930.75 51.0832 53.7969 0 0 286.894 6.64734 3.3564 
158 1.2059e+21 7.99861e-05 1758.42 -128.297 -21.6114 0 0 206.388 3.43621 2.4118 
159 8.107e+20 5.37729e-05 1545.36 -38.3048 -168.055 0 0 331.506 3.71052 1.6214 
160 1.1108e+21 7.36783e-05 1553.01 -37.7111 40.4243 0 0 357.607 5.48435 2.2216 
161 1.664e+21 0.000110371 1688.44 -109.062 -0.618724 0 0 177.617 4.08056 3.328 
162 1.894e+21 0.000125627 1367.87 -132.556 48.7967 0 0 895.162 23.408 3.788 
163 3.2974e+21 0.000218713 341.93 127.065 -86.9279 0 0 1867.33 85.011 6.5948 
164 1.55034e+22 0.00102833 2.50102 91.9176 66.4854 0 0 846.761 181.247 10.3356 
165 0 0 0 0 0 0 0 0 0 0 
166 0 0 0 0 0 0 0 0 0 0 
167 0 0 0 0 0 0 0 0 0 0 
168 0 0 0 0 0 0 0 0 0 0 
169 0 0 0 0 0 0 0 0 0 0 
170 0 0 0 0 0 0 0 0 0 0 
171 0 0 0 0 0 0 0 0 0 0 
172 0 0 0 0 0 0 0 0 0 0 
173 0 0 0 0 0 0 0 0 0 0 
174 0 0 0 0 0 0 0 0 0 0 
175 0 0 0 0 0 0 0 0 0 0 
176 0 0 0 0 0 0 0 0 0 0 
177 0 0 0 0 0 0 0 0 0 0 
178 0 0 0 0 0 0 0 0 0 0 
179 0 0 0 0 0 0 0 0 0 0 
180 0 0 0 0 0 0 0 0 0 0 
181 0 0 0 0 0 0 0 0 0 0 
182 0 0 0 0 0 0 0 0 0 0 
183 0 0 0 0 0 0 0 0 0 0 
184 0 0 0 0 0 0 0 0 0 0 
185 0 0 0 0 0 0 0 0 0 0 
186 0 0 0 0 0 0 0 0 0 0 
187 0 0 0 0 0 0 0 0 0 0 
188 0 0 0 0 0 0 0 0 0 0 
189 0 0 0 0 0 0 0 0 0 0 
190 0 0 0 0 0 0 0 0 0 0 
191 0 0 0 0 0 0 0 0 0 0 
192 0 0 0 0 0 0 0 0 0 0 
193 0 0 0 0 0 0 0 0 0 0 
194 4.2e+20 2.78582e-05 1467.92 297.974 -180.029 0 0 51.676 0.299655 0.84 
195 1.9053e+21 0.000126377 1644.42 113.977 17.603 0 0 217.362 5.71782 3.8106 
196 1.4332e+21 9.50627e-05 1821.98 17.662 -119.091 0 0 232.648 4.60351 2.8664 
197 1.0131e+21 6.71979e-05 1643.13 50.4087 147.25 0 0 290.064 4.05723 2.0262 
198 7.322e+20 4.85661e-05 1651.25 -179.848 95.6875 0 0 103.697 1.04828 1.4644 
199 1.0835e+21 7.18675e-05 1823.8 162.97 -2.63095 0 0 108.582 1.62431 2.167 
200 1.0398e+21 6.89689e-05 1705.91 58.1965 -55.9911 0 0 263.591 3.78411 2.0796 
201 2.1891e+21 0.000145201 1953.45 -48.5445 -83.8767 0 0 231.853 7.00748 4.3782 
202 1.3527e+21 8.97232e-05 1904.99 -100.417 22.3505 0 0 383.434 7.16103 2.7054 
203 1.6196e+21 0.000107426 1928.48 -33.8699 76.084 0 0 285.405 6.38194 3.2392 
204 2.7438e+21 0.000181994 1661.96 -72.7954 135.236 0 0 269.951 10.2263 5.4876 
205 1.2616e+21 8.36807e-05 1848.36 -195.104 -85.7063 0 0 300.483 5.23389 2.5232 
206 1.1271e+21 7.47594e-05 1826.81 7.08342 -49.3907 0 0 395.429 6.15339 2.2542 
207 1.8286e+21 0.000121289 1839.01 -48.7088 62.2285 0 0 237.863 6.00521 3.6572 
208 1.8981e+21 0.000125899 1847.07 -17.2024 68.1822 0 0 209.607 5.49297 3.7962 
209 1.449e+21 9.61107e-05 1726.8 16.5537 50.7449 0 0 219.116 4.38354 2.898 
210 2.1512e+21 0.000142687 1795.14 -1.54761 173.289 0 0 287.422 8.53658 4.3024 
211 2.6011e+21 0.000172528 1703.6 -42.5869 28.8976 0 0 401.149 14.4061 5.2022 
212 1.578e+21 0.000104667 1713.41 -174.02 -114.919 0 0 395.475 8.61607 3.156 
213 1.9407e+21 0.000128725 1133.62 109.398 2.732 0 0 2064.42 55.3145 3.8814 
214 7.1961e+21 0.00047731 157.995 -13.0247 61.8891 0 0 2311.46 229.65 4.7974 
215 0 0 0 0 0 0 0 0 0 0 
216 0 0 0 0 0 0 0 0 0 0 
217 0 0 0 0 0 0 0 0 0 0 
218 0 0 0 0 0 0 0 0 0 0 
219 0 0 0 0 0 0 0 0 0 0 
220 0 0 0 0 0 0 0 0 0 0 
221 0 0 0 0 0 0 0 0 0 0 
222 0 0 0 0 0 0 0 0 0 0 
223 0 0 0 0 0 0 0 0 0 0 
224 0 0 0 0 0 0 0 0 0 0 
225 0 0 0 0 0 0 0 0 0 0 
226 0 0 0 0 0 0 0 0 0 0 
227 0 0 0 0 0 0 0 0 0 0 
228 0 0 0 0 0 0 0 0 0 0 
229 0 0 0 0 0 0 0 0 0 0 
230 0 0 0 0 0 0 0 0 0 0 
231 0 0 0 0 0 0 0 0 0 0 
232 0 0 0 0 0 0 0 0 0 0 
233 0 0 0 0 0 0 0 0 0 0 
234 0 0 0 0 0 0 0 0 0 0 
235 0 0 0 0 0 0 0 0 0 0 
236 0 0 0 0 0 0 0 0 0 0 
237 0 0 0 0 0 0 0 0 0 0 
238 0 0 0 0 0 0 0 0 0 0 
239 0 0 0 0 0 0 0 0 0 0 
240 0 0 0 0 0 0 0 0 0 0 
241 0 0 0 0 0 0 0 0 0 0 
242 0 0 0 0 0 0 0 0 0 0 
243 0 0 0 0 0 0 0 0 0 0 
244 1.594e+20 1.05728e-05 1766.41 -138.054 141.946 0 0 164.226 0.36142 0.3188 
245 1.0918e+21 7.2418e-05 1762.93 -18.478 164.937 0 0 238.015 3.58782 2.1836 
246 1.0813e+21 7.17215e-05 1894.49 81.375 33.2096 0 0 205.642 3.07002 2.1626 
247 1.4537e+21 9.64225e-05 1652.3 -78.0067 144.612 0 0 152.74 3.06556 2.9074 
248 1.6013e+21 0.000106213 1675.45 -10.7012 76.9245 0 0 176.593 3.90417 3.2026 
249 1.4816e+21 9.8273e-05 1770.45 92.1851 -105.752 0 0 159.759 3.26797 2.9632 
250 3.739e+20 2.48004e-05 1548.83 -153.259 -105.746 0 0 245.621 1.26796 0.7478 
251 2.2644e+21 0.000150195 1734.97 -129.467 96.4102 0 0 208.281 6.51158 4.5288 
252 2.5696e+21 0.000170439 1651.61 -73.8811 77.2542 0 0 408.609 14.4963 5.1392 
253 2.003e+21 0.000132857 1835.07 -13.4623 64.4248 0 0 230.489 6.37403 4.006 
254 1.5228e+21 0.000101006 1810.58 -75.648 -14.2415 0 0 215.045 4.52122 3.0456 
255 1.2939e+21 8.58231e-05 1716.66 -70.0969 -168.916 0 0 192.494 3.43876 2.5878 
256 1.0004e+21 6.63555e-05 1633.48 -37.2182 -152.46 0 0 205.975 2.84493 2.0008 
257 1.3293e+21 8.81711e-05 1759 -1.75271 54.6686 0 0 236.926 4.34829 2.6586 
258 1.1227e+21 7.44676e-05 1692.26 84.7922 57.4846 0 0 188.763 2.92593 2.2454 
259 8.461e+20 5.6121e-05 1817.64 -43.4195 24.0467 0 0 449.908 5.25568 1.6922 
260 1.5285e+21 0.000101384 1980.87 70.2756 -178.244 0 0 328.018 6.92224 3.057 
261 1.2934e+21 8.57899e-05 2027.7 -78.1331 -208.307 0 0 411.709 7.35202 2.5868 
262 1.6385e+21 0.00010868 1790.72 -22.9254 -80.8399 0 0 254.165 5.74971 3.277 
263 2.2571e+21 0.000149711 826.306 -44.1562 -265.204 0 0 2346.38 73.1192 4.5142 
264 1.20036e+22 0.000796187 26.5491 41.9654 -41.6156 0 0 1252.53 207.579 8.0024 
265 0 0 0 0 0 0 0 0 0 0 
266 0 0 0 0 0 0 0 0 0 0 
267 0 0 0 0 0 0 0 0 0 0 
268 0 0 0 0 0 0 0 0 0 0 
269 0 0 0 0 0 0 0 0 0 0 
270 0 0 0 0 0 0 0 0 0 0 
271 0 0 0 0 0 0 0 0 0 0 
272 0 0 0 0 0 0 0 0 0 0 
273 0 0 0 0 0 0 0 0 0 0 
274 0 0 0 0 0 0 0 0 0 0 
275 0 0 0 0 0 0 0 0 0 0 
276 0 0 0 0 0 0 0 0 0 0 
277 0 0 0 0 0 0 0 0 0 0 
278 0 0 0 0 0 0 0 0 0 0 
279 0 0 0 0 0 0 0 0 0 0 
280 0 0 0 0 0 0 0 0 0 0 
281 0 0 0 0 0 0 0 0 0 0 
282 0 0 0 0 0 0 0 0 0 0 
283 0 0 0 0 0 0 0 0 0 0 
284 0 0 0 0 0 0 0 0 0 0 
285 0 0 0 0 0 0 0 0 0 0 
286 0 0 0 0 0 0 0 0 0 0 
287 0 0 0 0 0 0 0 0 0 0 
288 0 0 0 0 0 0 0 0 0 0 
289 0 0 0 0 0 0 0 0 0 0 
290 0 0 0 0 0 0 0 0 0 0 
291 0 0 0 0 0 0 0 0 0 0 
292 0 0 0 0 0 0 0 0 0 0 
293 0 0 0 0 0 0 0 0 0 0 
294 2.22e+20 1.4725e-05 1902.83 54.0814 21.9124 0 0 102.701 0.314783 0.444 
295 1.4208e+21 9.42402e-05 1753.45 -6.65534 51.8622 0 0 142.859 2.80237 2.8416 
296 1.9895e+21 0.000131962 1794.56 36.769 -39.1604 0 0 190.326 5.22787 3.979 
297 2.1585e+21 0.000143171 1725.16 60.3735 -6.48979 0 0 176.708 5.26612 4.317 
298 1.6135e+21 0.000107022 1700.65 70.0887 119.241 0 0 341.766 7.61344 3.227 
299 2.3283e+21 0.000154434 1666.12 37.1077 94.4339 0 0 217.557 6.9935 4.6566 
300 1.7269e+21 0.000114544 1800.73 119.124 181.402 0 0 105.164 2.50737 3.4538 
301 1.6545e+21 0.000109741 1609.87 59.5994 -55.3584 0 0 287.863 6.57561 3.309 
302 1.9683e+21 0.000130555 1647.79 -57.6882 150.796 0 0 157.565 4.28188 3.9366 
303 5.635e+20 3.73764e-05 1940.8 326.966 23.2239 0 0 504.824 3.92751 1.127 
304 5.841e+20 3.87428e-05 1776.55 125.171 -139.111 0 0 498.705 4.02174 1.1682 
305 6.647e+20 4.40889e-05 1867.37 -77.5484 27.4322 0 0 335.909 3.0827 1.3294 
306 1.635e+21 0.000108448 1716.81 -84.0859 -196.318 0 0 266.742 6.02134 3.27 
307 1.9729e+21 0.00013086 1752.83 -1.8455 -163.505 0 0 166.359 4.53143 3.9458 
308 1.6217e+21 0.000107566 1726.09 75.9588 -67.5279 0 0 198.496 4.44433 3.2434 
309 9.39e+20 6.22829e-05 1773.53 9.37436 -177.655 0 0 313.249 4.06105 1.878 
310 1.449e+21 9.61107e-05 1887.52 -99.8821 -61.6712 0 0 497.478 9.95235 2.898 
311 1.8984e+21 0.000125919 1846.98 -98.1989 -201.688 0 0 255.737 6.70292 3.7968 
312 1.9056e+21 0.000126397 1765.55 -127.488 -6.30942 0 0 167.953 4.4188 3.8112 
313 2.6282e+21 0.000174326 376.849 40.7187 58.9495 0 0 2727.88 98.9845 5.2564 
314 1.11753e+22 0.000741246 8.6009 -65.5281 129.843 0 0 1438.83 221.999 7.4502 
315 0 0 0 0 0 0 0 0 0 0 
316 0 0 0 0 0 0 0 0 0 0 
317 0 0 0 0 0 0 0 0 0 0 
318 0 0 0 0 0 0 0 0 0 0 
319 0 0 0 0 0 0 0 0 0 0 
320 0 0 0 0 0 0 0 0 0 0 
321 0 0 0 0 0 0 0 0 0 0 
322 0 0 0 0 0 0 0 0 0 0 
323 0 0 0 0 0 0 0 0 0 0 
324 0 0 0 0 0 0 0 0 0 0 
325 0 0 0 0 0 0 0 0 0 0 
326 0 0 0 0 0 0 0 0 0 0 
327 0 0 0 0 0 0 0 0 0 0 
328 0 0 0 0 0 0 0 0 0 0 
329 0 0 0 0 0 0 0 0 0 0 
330 0 0 0 0 0 0 0 0 0 0 
331 0 0 0 0 0 0 0 0 0 0 
332 0 0 0 0 0 0 0 0 0 0 
333 0 0 0 0 0 0 0 0 0 0 
334 0 0 0 0 0 0 0 0 0 0 
335 0 0 0 0 0 0 0 0 0 0 
336 0 0 0 0 0 0 0 0 0 0 
337 0 0 0 0 0 0 0 0 0 0 
338 0 0 0 0 0 0 0 0 0 0 
339 0 0 0 0 0 0 0 0 0 0 
340 0 0 0 0 0 0 0 0 0 0 
341 0 0 0 0 0 0 0 0 0 0 
342 0 0 0 0 0 0 0 0 0 0 
343 6.9e+18 4.5767e-07 1729.68 244.494 385.451 0 0 1.61733e-11 1.54074e-15 0.0138 
344 1.0871e+21 7.21063e-05 1757.91 -24.7195 103.323 0 0 219.442 3.29361 2.1742 
345 2.316e+21 0.000153618 1619.88 -156.633 16.1079 0 0 152.939 4.89036 4.632 
346 1.0734e+21 7.11975e-05 1682.66 -35.9138 53.4328 0 0 61.3229 0.908798 2.1468 
347 1.0009e+21 6.63887e-05 1807.56 19.8632 -52.7928 0 0 70.0676 0.968259 2.0018 
348 1.7964e+21 0.000119153 1792.91 119.035 -33.6575 0 0 130.76 3.2431 3.5928 
349 1.332e+21 8.83502e-05 1612.14 38.0917 87.659 0 0 402.508 7.40223 2.664 
350 2.4572e+21 0.000162984 1637.01 -38.1412 20.9622 0 0 292.219 9.91362 4.9144 
351 1.154e+21 7.65437e-05 1703.81 38.2415 -199.195 0 0 339.575 5.41035 2.308 
352 1.8227e+21 0.000120898 1673.99 221.25 -82.2232 0 0 160.209 4.03166 3.6454 
353 1.4567e+21 9.66215e-05 1769.9 50.0772 10.4388 0 0 224.788 4.52091 2.9134 
354 7.658e+20 5.07947e-05 1800.66 151.758 -156.752 0 0 496.547 5.25 1.5316 
355 1.4295e+21 9.48173e-05 1913.09 139.963 34.3069 0 0 274.101 5.40976 2.859 
356 1.4855e+21 9.85317e-05 1786.75 -2.95736 -1.07086 0 0 333.573 6.84143 2.971 
357 1.235e+21 8.19163e-05 1766.48 78.7428 80.7038 0 0 322.318 5.49585 2.47 
358 7.026e+20 4.66028e-05 1859.51 -87.8701 -159.152 0 0 71.0976 0.689678 1.4052 
359 1.8035e+21 0.000119624 1822.79 62.2338 -221.305 0 0 257.086 6.40144 3.607 
360 2.1655e+21 0.000143635 1739.04 166.962 -221.848 0 0 166.438 4.97616 4.331 
361 1.2394e+21 8.22082e-05 1690.17 21.2713 178.228 0 0 289.803 4.95905 2.4788 
362 6.802e+20 4.5117e-05 859.031 -156.59 -166.802 0 0 2440.55 22.9196 1.3604 
363 3.3004e+21 0.000218912 55.534 166.799 -145.737 0 0 2067.3 94.2007 6.6008 
364 1.07769e+22 0.000714821 -13.1767 -131.074 -136.995 0 0 1523.42 226.672 7.1846 
365 0 0 0 0 0 0 0 0 0 0 
366 0 0 0 0 0 0 0 0 0 0 
367 0 0 0 0 0 0 0 0 0 0 
368 0 0 0 0 0 0 0 0 0 0 
369 0 0 0 0 0 0 0 0 0 0 
370 0 0 0 0 0 0 0 0 0 0 
371 0 0 0 0 0 0 0 0 0 0 
372 0 0 0 0 0 0 0 0 0 0 
373 0 0 0 0 0 0 0 0 0 0 
374 0 0 0 0 0 0 0 0 0 0 
375 0 0 0 0 0 0 0 0 0 0 
376 0 0 0 0 0 0 0 0 0 0 
377 0 0 0 0 0 0 0 0 0 0 
378 0 0 0 0 0 0 0 0 0 0 
379 0 0 0 0 0 0 0 0 0 0 
380 0 0 0 0 0 0 0 0 0 0 
381 0 0 0 0 0 0 0 0 0 0 
382 0 0 0 0 0 0 0 0 0 0 
383 0 0 0 0 0 0 0 0 0 0 
384 0 0 0 0 0 0 0 0 0 0 
385 0 0 0 0 0 0 0 0 0 0 
386 0 0 0 0 0 0 0 0 0 0 
387 0 0 0 0 0 0 0 0 0 0 
388 0 0 0 0 0 0 0 0 0 0 
389 0 0 0 0 0 0 0 0 0 0 
390 0 0 0 0 0 0 0 0 0 0 
391 0 0 0 0 0 0 0 0 0 0 
392 1.687e+20 1.11897e-05 826.65 -688.78 164.81 0 0 8.64365e-11 2.01324e-13 0.3374 
393 1.213e+20 8.04571e-06 1268 97.0223 140.167 0 0 530.061 0.887707 0.2426 
394 3.88e+20 2.57357e-05 1876.28 -177.312 46.2469 0 0 177.148 0.94897 0.776 
395 1.6056e+21 0.000106498 1663.42 -140.632 17.8236 0 0 218.397 4.84135 3.2112 
396 1.4831e+21 9.83725e-05 1811.36 44.6933 -27.6466 0 0 113.24 2.31875 2.9662 
397 2.0811e+21 0.000138037 1640.67 46.1268 -100.953 0 0 136.3 3.91627 4.1622 
398 1.3298e+21 8.82043e-05 1774.37 116.301 -49.5348 0 0 249.941 4.58888 2.6596 
399 1.524e+21 0.000101085 1893.54 -66.4859 112.607 0 0 266.959 5.61711 3.048 
400 1.0936e+21 7.25374e-05 1855.45 -59.1762 221.147 0 0 379.657 5.73236 2.1872 
401 1.1166e+21 7.4063e-05 1876.69 156.634 -2.59976 0 0 150.798 2.32475 2.2332 
402 1.2992e+21 8.61746e-05 1856.3 98.8079 32.5283 0 0 230.747 4.139 2.5984 
403 1.3359e+21 8.86089e-05 1907.78 125.107 -57.5682 0 0 354.587 6.54003 2.6718 
404 1.7518e+21 0.000116195 1700.18 84.3351 97.5163 0 0 230.642 5.57836 3.5036 
405 2.7126e+21 0.000179924 1561.52 49.1935 -142.714 0 0 265.764 9.95325 5.4252 
406 8.08e+20 5.35938e-05 1730.35 131.497 -39.9347 0 0 148.146 1.65266 1.616 
407 5.762e+20 3.82188e-05 1632.06 -15.662 44.0454 0 0 144.405 1.14879 1.1524 
408 1.8038e+21 0.000119644 1725.41 -105.231 -9.91235 0 0 94.9028 2.36347 3.6076 
409 2.2619e+21 0.00015003 1844.97 -130.919 -60.584 0 0 260.769 8.14354 4.5238 
410 1.7318e+21 0.000114869 1699.83 -113.657 0.57023 0 0 183.17 4.37961 3.4636 
411 1.0456e+21 6.93536e-05 1815.28 239.864 270.914 0 0 264.714 3.82143 2.0912 
412 1.3979e+21 9.27213e-05 1721.62 113.695 217.333 0 0 492.803 9.51114 2.7958 
413 2.73e+21 0.000181078 923.466 89.8904 213.425 0 0 2259.56 85.1665 5.46 
414 1.22304e+22 0.00081123 82.3457 118.881 272.995 0 0 1960.08 330.976 8.1536 
415 0 0 0 0 0 0 0 0 0 0 
416 0 0 0 0 0 0 0 0 0 0 
417 0 0 0 0 0 0 0 0 0 0 
418 0 0 0 0 0 0 0 0 0 0 
419 0 0 0 0 0 0 0 0 0 0 
420 0 0 0 0 0 0 0 0 0 0 
421 0 0 0 0 0 0 0 0 0 0 
422 0 0 0 0 0 0 0 0 0 0 
423 0 0 0 0 0 0 0 0 0 0 
424 0 0 0 0 0 0 0 0 0 0 
425 0 0 0 0 0 0 0 0 0 0 
426 0 0 0 0 0 0 0 0 0 0 
427 0 0 0 0 0 0 0 0 0 0 
428 0 0 0 0 0 0 0 0 0 0 
429 0 0 0 0 0 0 0 0 0 0 
430 0 0 0 0 0 0 0 0 0 0 
431 0 0 0 0 0 0 0 0 0 0 
432 0 0 0 0 0 0 0 0 0 0 
433 0 0 0 0 0 0 0 0 0 0 
434 0 0 0 0 0 0 0 0 0 0 
435 0 0 0 0 0 0 0 0 0 0 
436 0 0 0 0 0 0 0 0 0 0 
437 0 0 0 0 0 0 0 0 0 0 
438 0 0 0 0 0 0 0 0 0 0 
439 0 0 0 0 0 0 0 0 0 0 
440 0 0 0 0 0 0 0 0 0 0 
441 0 0 0 0 0 0 0 0 0 0 
442 2.903e+20 1.92553e-05 826.65 -688.78 164.81 0 0 1.06611e-11 4.273e-14 0.5806 
443 0 0 0 0 0 0 0 0 0 0 
444 9.944e+20 6.59576e-05 1619.74 57.7017 111.755 0 0 292.81 4.02004 1.9888 
445 1.6989e+21 0.000112686 1562.63 -55.6421 10.2898 0 0 161.729 3.79348 3.3978 
446 1.0083e+21 6.68795e-05 1675.89 -43.0618 -160.747 0 0 159.682 2.22295 2.0166 
447 1.7366e+21 0.000115187 1597.2 159.994 -36.5031 0 0 108.034 2.59026 3.4732 
448 1.2683e+21 8.41251e-05 1618.32 52.7836 79.2454 0 0 191.74 3.35752 2.5366 
449 1.4545e+21 9.64755e-05 1654.42 -5.30146 161.431 0 0 206.857 4.154 2.909 
450 1.3608e+21 9.02605e-05 1725.32 49.9521 1.6052 0 0 161.622 3.03653 2.7216 
451 1.9456e+21 0.00012905 1642.17 92.525 -59.992 0 0 255.861 6.87291 3.8912 
452 1.1529e+21 7.64707e-05 1764.79 80.5368 -4.58086 0 0 186.77 2.97291 2.3058 
453 1.3633e+21 9.04263e-05 1790.73 76.825 -58.7185 0 0 144.944 2.72819 2.7266 
454 5.42e+20 3.59503e-05 1741.21 64.8913 134.257 0 0 390.26 2.92036 1.084 
455 1.946e+21 0.000129076 1835.2 13.8254 75.3985 0 0 329.628 8.85625 3.892 
456 1.883e+21 0.000124898 1802.55 56.9395 59.2747 0 0 390.586 10.1543 3.766 
457 1.0315e+21 6.84184e-05 2000.76 -129.034 -29.9148 0 0 215.486 3.06881 2.063 
458 9.24e+20 6.1288e-05 1921.61 -61.2371 -132.029 0 0 225.848 2.88118 1.848 
459 1.1352e+21 7.52967e-05 2151.31 -59.836 68.5052 0 0 304.302 4.76936 2.2704 
460 1.0649e+21 7.06338e-05 2039 79.2917 99.6499 0 0 194.398 2.85814 2.1298 
461 2.0245e+21 0.000134283 1704.01 108.087 41.4648 0 0 297.98 8.3289 4.049 
462 1.4469e+21 9.59714e-05 1814.37 -136.127 63.977 0 0 240.732 4.809 2.8938 
463 3.3526e+21 0.000222375 676.491 174.144 -17.4603 0 0 2103.17 97.3509 6.7052 
464 1.21641e+22 0.000806833 12.576 282.096 83.336 0 0 1440.24 241.879 8.1094 
465 0 0 0 0 0 0 0 0 0 0 
466 0 0 0 0 0 0 0 0 0 0 
467 0 0 0 0 0 0 0 0 0 0 
468 0 0 0 0 0 0 0 0 0 0 
469 0 0 0 0 0 0 0 0 0 0 
470 0 0 0 0 0 0 0 0 0 0 
471 0 0 0 0 0 0 0 0 0 0 
472 0 0 0 0 0 0 0 0 0 0 
473 0 0 0 0 0 0 0 0 0 0 
474 0 0 0 0 0 0 0 0 0 0 
475 0 0 0 0 0 0 0 0 0 0 
476 0 0 0 0 0 0 0 0 0 0 
477 0 0 0 0 0 0 0 0 0 0 
478 0 0 0 0 0 0 0 0 0 0 
479 0 0 0 0 0 0 0 0 0 0 
480 0 0 0 0 0 0 0 0 0 0 
481 0 0 0 0 0 0 0 0 0 0 
482 0 0 0 0 0 0 0 0 0 0 
483 0 0 0 0 0 0 0 0 0 0 
484 0 0 0 0 0 0 0 0 0 0 
485 0 0 0 0 0 0 0 0 0 0 
486 0 0 0 0 0 0 0 0 0 0 
487 0 0 0 0 0 0 0 0 0 0 
488 0 0 0 0 0 0 0 0 0 0 
489 0 0 0 0 0 0 0 0 0 0 
490 0 0 0 0 0 0 0 0 0 0 
491 0 0 0 0 0 0 0 0 0 0 
492 2.091e+20 1.38694e-05 832.747 -555.069 -145.403 0 0 5.30758 0.0153226 0.4182 
493 5.44e+19 3.6083e-06 832.925 -551.187 -154.41 0 0 1.69582e-11 1.27368e-14 0.1088 
494 3.336e+20 2.21274e-05 1665.46 81.5016 289.936 0 0 197.848 0.911255 0.6672 
495 2.2096e+21 0.000146561 1464.59 145.242 36.9237 0 0 464.677 14.1758 4.4192 
496 1.3579e+21 9.00681e-05 1610.27 119.571 15.0031 0 0 177.238 3.32283 2.7158 
497 1.5974e+21 0.000105954 1634.06 -140.362 85.7408 0 0 230.125 5.07528 3.1948 
498 2.4513e+21 0.000162592 1650.2 -4.97329 -7.05496 0 0 286.086 9.68225 4.9026 
499 1.396e+21 9.25953e-05 1915.51 -76.3652 -3.14349 0 0 235.103 4.53135 2.792 
500 2.4757e+21 0.000164211 1835.91 33.9864 -33.5023 0 0 201.049 6.87198 4.9514 
501 4.204e+20 2.78847e-05 1773.82 163.971 -211.69 0 0 290.52 1.68625 0.8408 
502 5.595e+20 3.71111e-05 1857.87 -233.101 97.0633 0 0 196.77 1.51999 1.119 
503 1.1765e+21 7.80361e-05 1837.18 -125.591 -32.6535 0 0 298.028 4.84096 2.353 
504 2.4291e+21 0.00016112 1826.26 -8.18253 -35.3732 0 0 287.267 9.63417 4.8582 
505 1.6459e+21 0.000109171 1733.73 -24.0622 154.307 0 0 229.39 5.21267 3.2918 
506 1.9625e+21 0.000130171 1737.7 -9.34313 61.6275 0 0 198.928 5.39 3.925 
507 1.1849e+21 7.85932e-05 1789.06 45.7693 168.403 0 0 274.044 4.48317 2.3698 
508 1.2762e+21 8.46491e-05 1628.53 -45.533 -81.1744 0 0 237.455 4.18392 2.5524 
509 1.124e+21 7.45538e-05 1824.25 -256.893 -60.1943 0 0 119.376 1.85253 2.248 
510 1.4278e+21 9.47045e-05 1772.49 -116.535 102.565 0 0 275.805 5.43691 2.8556 
511 2.9654e+21 0.000196692 1705.43 -15.7433 -7.24454 0 0 276.792 11.3324 5.9308 
512 2.8845e+21 0.000191326 1806.19 48.9295 -35.9442 0 0 271.051 10.7945 5.769 
513 1.8825e+21 0.000124864 865.386 301.42 284.462 0 0 1873.68 48.6984 3.765 
514 1.9052e+21 0.00012637 1062.08 365.758 -34.9946 0 0 1945.42 51.1726 3.8104 
515 2.1424e+21 0.000142103 511.436 111.115 117.716 0 0 656.486 19.4182 4.2848 
516 6.857e+20 4.54818e-05 1764.93 92.0668 97.6241 0 0 774.957 7.3366 1.3714 
517 1.618e+21 0.00010732 669.438 -2.81165 -29.8309 0 0 1367.93 30.558 3.236 
518 1.3739e+21 9.11294e-05 993.706 103.959 43.2347 0 0 1088.26 20.643 2.7478 
519 1.285e+21 8.52328e-05 415.373 66.7333 -114.093 0 0 817.207 14.4983 2.57 
520 1.2551e+21 8.32495e-05 855.835 -9.82906 -183.484 0 0 1806.92 31.3113 2.5102 
521 9.224e+20 6.11819e-05 945.178 -50.8748 403.891 0 0 1133.95 14.441 1.8448 
522 7.228e+20 4.79426e-05 873.431 321.665 -95.9798 0 0 288.274 2.87678 1.4456 
523 1.5122e+21 0.000100303 692.411 58.1554 -102.697 0 0 819.664 17.1131 3.0244 
524 1.133e+21 7.51508e-05 215.513 -24.0451 -84.5582 0 0 623.345 9.75083 2.266 
525 1.917e+20 1.27153e-05 1898.27 -178.721 128.61 0 0 110.873 0.293448 0.3834 
526 1.1937e+21 7.91769e-05 1336.19 -1.36164 -294.562 0 0 942.027 15.5254 2.3874 
527 2.0251e+21 0.000134323 1022.91 -51.2248 -161.368 0 0 791.979 22.1434 4.0502 
528 2.8715e+21 0.000190464 587.741 47.7232 -44.2422 0 0 779.033 30.885 5.743 
529 1.6946e+21 0.000112401 426.971 117.823 -210.057 0 0 827.94 19.3709 3.3892 
530 2.412e+20 1.59986e-05 1947.79 -709.554 300.415 0 0 467.677 1.55742 0.4824 
531 1.1823e+21 7.84208e-05 568.188 177.065 264.694 0 0 1182.07 19.2954 2.3646 
532 0 0 0 0 0 0 0 0 0 0 
533 1.2441e+21 8.25199e-05 1047.75 129.202 486.255 0 0 907.398 15.5861 2.4882 
534 2.2575e+21 0.000149738 731.054 296.06 -43.5882 0 0 1022.21 31.8605 4.515 
535 3.994e+20 2.64918e-05 1077.57 -64.6411 -456.283 0 0 89.198 0.491865 0.7988 
536 1.776e+20 1.178e-05 1196.84 -211.272 -327.71 0 0 247.443 0.606739 0.3552 
537 2.5697e+21 0.000170446 810.677 -163.567 36.8514 0 0 1101.5 39.0795 5.1394 
538 7.113e+20 4.71798e-05 1043.93 95.2747 318.568 0 0 630.903 6.19582 1.4226 
539 2.2894e+21 0.000151854 684.003 -2.45916 103.375 0 0 1142.26 36.1052 4.5788 
540 8.086e+20 5.36336e-05 318.825 433.722 -57.9876 0 0 1098.69 12.2656 1.6172 
541 1.253e+20 8.31102e-06 893.238 -449.235 -100.496 0 0 180.749 0.312687 0.2506 
542 1.3215e+21 8.76538e-05 1350.76 -185.711 -317.584 0 0 360.639 6.57995 2.643 
543 6.538e+20 4.33659e-05 1499.94 -57.2749 -120.178 0 0 277.126 2.50153 1.3076 
544 7.305e+20 4.84533e-05 1728.81 125.575 180.096 0 0 220.803 2.22694 1.461 
545 9.565e+20 6.34437e-05 1916.67 131.449 142.726 0 0 219.09 2.89328 1.913 
546 1.5063e+21 9.99114e-05 1608.52 -25.6302 -64.309 0 0 211.157 4.39136 3.0126 
547 8.406e+20 5.57562e-05 1473.9 3.76591 8.62271 0 0 154.542 1.79357 1.6812 
548 1.5512e+21 0.00010289 1608.87 -198.549 -21.3447 0 0 405.499 8.68443 3.1024 
549 1.7879e+21 0.00011859 1496.49 -82.5543 26.8461 0 0 490.072 12.0972 3.5758 
550 4.265e+20 2.82893e-05 2157.35 34.93 -154.793 0 0 48.4456 0.28527 0.853 
551 1.8616e+21 0.000123478 1655.91 -27.6466 255.545 0 0 251.668 6.46841 3.7232 
552 3.0451e+21 0.000201978 1648.78 47.4508 46.9648 0 0 285.1 11.9862 6.0902 
553 1.333e+21 8.84166e-05 1970.88 -22.3014 16.4093 0 0 177.157 3.2604 2.666 
554 2.2173e+21 0.000147071 1661.46 -28.6805 -71.2786 0 0 241.55 7.39459 4.4346 
555 1.2544e+21 8.32031e-05 1681.46 44.3192 32.8849 0 0 153.137 2.65215 2.5088 
556 1.7676e+21 0.000117243 1525.94 154.065 -156.153 0 0 292.507 7.13845 3.5352 
557 1.402e+21 9.29933e-05 1482.32 43.8231 -125.906 0 0 269.332 5.21339 2.804 
558 1.5493e+21 0.000102764 1684.78 11.2338 -3.62628 0 0 158.3 3.3861 3.0986 
559 8.62e+20 5.71756e-05 1847.85 84.2765 68.3386 0 0 194.87 2.31918 1.724 
560 4.947e+20 3.2813e-05 1829.5 -271.02 114.338 0 0 196.762 1.3439 0.9894 
561 9.391e+20 6.22896e-05 1711.79 -25.0129 -92.0007 0 0 118.168 1.53212 1.8782 
562 2.3137e+21 0.000153465 1771.84 25.0154 -15.5854 0 0 304.082 9.7136 4.6274 
563 2.7687e+21 0.000183645 1599.1 83.3861 76.7698 0 0 585.817 22.3934 5.5374 
564 1.4293e+21 9.4804e-05 1444.9 466.147 -121.419 0 0 1315.38 25.9572 2.8586 
565 2.3628e+21 0.000156722 1265.67 412.982 -379.667 0 0 923.412 30.1235 4.7256 
566 1.5057e+21 9.98716e-05 1345 33.0918 -92.5354 0 0 730.09 15.1774 3.0114 
567 1.2116e+21 8.03642e-05 1300.09 -60.4374 -54.4483 0 0 562.467 9.40891 2.4232 
568 7.772e+20 5.15509e-05 1244.53 -163.816 -555.845 0 0 225.913 2.42414 1.5544 
569 1.0483e+21 6.95327e-05 1457.61 197.167 -12.2074 0 0 511.512 7.40328 2.0966 
570 1.4922e+21 9.89761e-05 1527.98 12.0066 129.415 0 0 508.929 10.485 2.9844 
571 1.4488e+21 9.60975e-05 1221.66 226.32 -205.994 0 0 990.013 19.8031 2.8976 
572 1.5613e+21 0.000103559 1045.82 163.157 -65.4648 0 0 398.352 8.58691 3.1226 